PSF EXT CMAP XPLOR

         3 !NTITLE
* GENERATED BY CHARMM-GUI (HTTP://WWW.CHARMM-GUI.ORG) V3.7 ON JUL, 04. 2026. JOB
* GET A DIFFERENT CONFORMATION FOR LIPIDS PENETRATING PROTEIN / CHOL            
*  DATE:     7/ 4/26     15:50:29      CREATED BY USER: charmm-gui              

     24916 !NATOM
         1 MEMB     1        PMPE     N        NH3L    -0.300000       14.0070           0
         2 MEMB     1        PMPE     HN1      HCL      0.330000       1.00800           0
         3 MEMB     1        PMPE     HN2      HCL      0.330000       1.00800           0
         4 MEMB     1        PMPE     HN3      HCL      0.330000       1.00800           0
         5 MEMB     1        PMPE     C12      CTL2     0.130000       12.0110           0
         6 MEMB     1        PMPE     H12A     HAL2     0.900000E-01   1.00800           0
         7 MEMB     1        PMPE     H12B     HAL2     0.900000E-01   1.00800           0
         8 MEMB     1        PMPE     C11      CTL2    -0.800000E-01   12.0110           0
         9 MEMB     1        PMPE     H11A     HAL2     0.900000E-01   1.00800           0
        10 MEMB     1        PMPE     H11B     HAL2     0.900000E-01   1.00800           0
        11 MEMB     1        PMPE     P        PL        1.50000       30.9740           0
        12 MEMB     1        PMPE     O13      O2L     -0.780000       15.9994           0
        13 MEMB     1        PMPE     O14      O2L     -0.780000       15.9994           0
        14 MEMB     1        PMPE     O11      OSLP    -0.570000       15.9994           0
        15 MEMB     1        PMPE     O12      OSLP    -0.570000       15.9994           0
        16 MEMB     1        PMPE     C1       CTL2    -0.800000E-01   12.0110           0
        17 MEMB     1        PMPE     HA       HAL2     0.900000E-01   1.00800           0
        18 MEMB     1        PMPE     HB       HAL2     0.900000E-01   1.00800           0
        19 MEMB     1        PMPE     C2       CTL1     0.170000       12.0110           0
        20 MEMB     1        PMPE     HS       HAL1     0.900000E-01   1.00800           0
        21 MEMB     1        PMPE     O21      OSL     -0.490000       15.9994           0
        22 MEMB     1        PMPE     C21      CL       0.900000       12.0110           0
        23 MEMB     1        PMPE     O22      OBL     -0.630000       15.9994           0
        24 MEMB     1        PMPE     C22      CTL2    -0.220000       12.0110           0
        25 MEMB     1        PMPE     H2R      HAL2     0.900000E-01   1.00800           0
        26 MEMB     1        PMPE     H2S      HAL2     0.900000E-01   1.00800           0
        27 MEMB     1        PMPE     C3       CTL2     0.800000E-01   12.0110           0
        28 MEMB     1        PMPE     HX       HAL2     0.900000E-01   1.00800           0
        29 MEMB     1        PMPE     HY       HAL2     0.900000E-01   1.00800           0
        30 MEMB     1        PMPE     O31      OSL     -0.490000       15.9994           0
        31 MEMB     1        PMPE     C31      CL       0.900000       12.0110           0
        32 MEMB     1        PMPE     O32      OBL     -0.630000       15.9994           0
        33 MEMB     1        PMPE     C32      CTL2    -0.220000       12.0110           0
        34 MEMB     1        PMPE     H2X      HAL2     0.900000E-01   1.00800           0
        35 MEMB     1        PMPE     H2Y      HAL2     0.900000E-01   1.00800           0
        36 MEMB     1        PMPE     C23      CTL2    -0.180000       12.0110           0
        37 MEMB     1        PMPE     H3R      HAL2     0.900000E-01   1.00800           0
        38 MEMB     1        PMPE     H3S      HAL2     0.900000E-01   1.00800           0
        39 MEMB     1        PMPE     C24      CTL2    -0.180000       12.0110           0
        40 MEMB     1        PMPE     H4R      HAL2     0.900000E-01   1.00800           0
        41 MEMB     1        PMPE     H4S      HAL2     0.900000E-01   1.00800           0
        42 MEMB     1        PMPE     C25      CTL2    -0.180000       12.0110           0
        43 MEMB     1        PMPE     H5R      HAL2     0.900000E-01   1.00800           0
        44 MEMB     1        PMPE     H5S      HAL2     0.900000E-01   1.00800           0
        45 MEMB     1        PMPE     C26      CTL2    -0.180000       12.0110           0
        46 MEMB     1        PMPE     H6R      HAL2     0.900000E-01   1.00800           0
        47 MEMB     1        PMPE     H6S      HAL2     0.900000E-01   1.00800           0
        48 MEMB     1        PMPE     C27      CTL2    -0.180000       12.0110           0
        49 MEMB     1        PMPE     H7R      HAL2     0.900000E-01   1.00800           0
        50 MEMB     1        PMPE     H7S      HAL2     0.900000E-01   1.00800           0
        51 MEMB     1        PMPE     C28      CTL2    -0.180000       12.0110           0
        52 MEMB     1        PMPE     H8R      HAL2     0.900000E-01   1.00800           0
        53 MEMB     1        PMPE     H8S      HAL2     0.900000E-01   1.00800           0
        54 MEMB     1        PMPE     C29      CG3RC1  -0.900000E-01   12.0110           0
        55 MEMB     1        PMPE     H9R      HGA1     0.900000E-01   1.00800           0
        56 MEMB     1        PMPE     C217     CG3C31  -0.180000       12.0110           0
        57 MEMB     1        PMPE     H17R     HGA2     0.900000E-01   1.00800           0
        58 MEMB     1        PMPE     H17S     HGA2     0.900000E-01   1.00800           0
        59 MEMB     1        PMPE     C210     CG3RC1  -0.900000E-01   12.0110           0
        60 MEMB     1        PMPE     H10R     HGA1     0.900000E-01   1.00800           0
        61 MEMB     1        PMPE     C211     CTL2    -0.180000       12.0110           0
        62 MEMB     1        PMPE     H11R     HAL2     0.900000E-01   1.00800           0
        63 MEMB     1        PMPE     H11S     HAL2     0.900000E-01   1.00800           0
        64 MEMB     1        PMPE     C212     CTL2    -0.180000       12.0110           0
        65 MEMB     1        PMPE     H12R     HAL2     0.900000E-01   1.00800           0
        66 MEMB     1        PMPE     H12S     HAL2     0.900000E-01   1.00800           0
        67 MEMB     1        PMPE     C213     CTL2    -0.180000       12.0110           0
        68 MEMB     1        PMPE     H13R     HAL2     0.900000E-01   1.00800           0
        69 MEMB     1        PMPE     H13S     HAL2     0.900000E-01   1.00800           0
        70 MEMB     1        PMPE     C214     CTL2    -0.180000       12.0110           0
        71 MEMB     1        PMPE     H14R     HAL2     0.900000E-01   1.00800           0
        72 MEMB     1        PMPE     H14S     HAL2     0.900000E-01   1.00800           0
        73 MEMB     1        PMPE     C215     CTL2    -0.180000       12.0110           0
        74 MEMB     1        PMPE     H15R     HAL2     0.900000E-01   1.00800           0
        75 MEMB     1        PMPE     H15S     HAL2     0.900000E-01   1.00800           0
        76 MEMB     1        PMPE     C216     CTL3    -0.270000       12.0110           0
        77 MEMB     1        PMPE     H16R     HAL3     0.900000E-01   1.00800           0
        78 MEMB     1        PMPE     H16S     HAL3     0.900000E-01   1.00800           0
        79 MEMB     1        PMPE     H16T     HAL3     0.900000E-01   1.00800           0
        80 MEMB     1        PMPE     C33      CTL2    -0.180000       12.0110           0
        81 MEMB     1        PMPE     H3X      HAL2     0.900000E-01   1.00800           0
        82 MEMB     1        PMPE     H3Y      HAL2     0.900000E-01   1.00800           0
        83 MEMB     1        PMPE     C34      CTL2    -0.180000       12.0110           0
        84 MEMB     1        PMPE     H4X      HAL2     0.900000E-01   1.00800           0
        85 MEMB     1        PMPE     H4Y      HAL2     0.900000E-01   1.00800           0
        86 MEMB     1        PMPE     C35      CTL2    -0.180000       12.0110           0
        87 MEMB     1        PMPE     H5X      HAL2     0.900000E-01   1.00800           0
        88 MEMB     1        PMPE     H5Y      HAL2     0.900000E-01   1.00800           0
        89 MEMB     1        PMPE     C36      CTL2    -0.180000       12.0110           0
        90 MEMB     1        PMPE     H6X      HAL2     0.900000E-01   1.00800           0
        91 MEMB     1        PMPE     H6Y      HAL2     0.900000E-01   1.00800           0
        92 MEMB     1        PMPE     C37      CTL2    -0.180000       12.0110           0
        93 MEMB     1        PMPE     H7X      HAL2     0.900000E-01   1.00800           0
        94 MEMB     1        PMPE     H7Y      HAL2     0.900000E-01   1.00800           0
        95 MEMB     1        PMPE     C38      CTL2    -0.180000       12.0110           0
        96 MEMB     1        PMPE     H8X      HAL2     0.900000E-01   1.00800           0
        97 MEMB     1        PMPE     H8Y      HAL2     0.900000E-01   1.00800           0
        98 MEMB     1        PMPE     C39      CTL2    -0.180000       12.0110           0
        99 MEMB     1        PMPE     H9X      HAL2     0.900000E-01   1.00800           0
       100 MEMB     1        PMPE     H9Y      HAL2     0.900000E-01   1.00800           0
       101 MEMB     1        PMPE     C310     CTL2    -0.180000       12.0110           0
       102 MEMB     1        PMPE     H10X     HAL2     0.900000E-01   1.00800           0
       103 MEMB     1        PMPE     H10Y     HAL2     0.900000E-01   1.00800           0
       104 MEMB     1        PMPE     C311     CTL2    -0.180000       12.0110           0
       105 MEMB     1        PMPE     H11X     HAL2     0.900000E-01   1.00800           0
       106 MEMB     1        PMPE     H11Y     HAL2     0.900000E-01   1.00800           0
       107 MEMB     1        PMPE     C312     CTL2    -0.180000       12.0110           0
       108 MEMB     1        PMPE     H12X     HAL2     0.900000E-01   1.00800           0
       109 MEMB     1        PMPE     H12Y     HAL2     0.900000E-01   1.00800           0
       110 MEMB     1        PMPE     C313     CTL2    -0.180000       12.0110           0
       111 MEMB     1        PMPE     H13X     HAL2     0.900000E-01   1.00800           0
       112 MEMB     1        PMPE     H13Y     HAL2     0.900000E-01   1.00800           0
       113 MEMB     1        PMPE     C314     CTL2    -0.180000       12.0110           0
       114 MEMB     1        PMPE     H14X     HAL2     0.900000E-01   1.00800           0
       115 MEMB     1        PMPE     H14Y     HAL2     0.900000E-01   1.00800           0
       116 MEMB     1        PMPE     C315     CTL2    -0.180000       12.0110           0
       117 MEMB     1        PMPE     H15X     HAL2     0.900000E-01   1.00800           0
       118 MEMB     1        PMPE     H15Y     HAL2     0.900000E-01   1.00800           0
       119 MEMB     1        PMPE     C316     CTL3    -0.270000       12.0110           0
       120 MEMB     1        PMPE     H16X     HAL3     0.900000E-01   1.00800           0
       121 MEMB     1        PMPE     H16Y     HAL3     0.900000E-01   1.00800           0
       122 MEMB     1        PMPE     H16Z     HAL3     0.900000E-01   1.00800           0
       123 MEMB     2        PMPE     N        NH3L    -0.300000       14.0070           0
       124 MEMB     2        PMPE     HN1      HCL      0.330000       1.00800           0
       125 MEMB     2        PMPE     HN2      HCL      0.330000       1.00800           0
       126 MEMB     2        PMPE     HN3      HCL      0.330000       1.00800           0
       127 MEMB     2        PMPE     C12      CTL2     0.130000       12.0110           0
       128 MEMB     2        PMPE     H12A     HAL2     0.900000E-01   1.00800           0
       129 MEMB     2        PMPE     H12B     HAL2     0.900000E-01   1.00800           0
       130 MEMB     2        PMPE     C11      CTL2    -0.800000E-01   12.0110           0
       131 MEMB     2        PMPE     H11A     HAL2     0.900000E-01   1.00800           0
       132 MEMB     2        PMPE     H11B     HAL2     0.900000E-01   1.00800           0
       133 MEMB     2        PMPE     P        PL        1.50000       30.9740           0
       134 MEMB     2        PMPE     O13      O2L     -0.780000       15.9994           0
       135 MEMB     2        PMPE     O14      O2L     -0.780000       15.9994           0
       136 MEMB     2        PMPE     O11      OSLP    -0.570000       15.9994           0
       137 MEMB     2        PMPE     O12      OSLP    -0.570000       15.9994           0
       138 MEMB     2        PMPE     C1       CTL2    -0.800000E-01   12.0110           0
       139 MEMB     2        PMPE     HA       HAL2     0.900000E-01   1.00800           0
       140 MEMB     2        PMPE     HB       HAL2     0.900000E-01   1.00800           0
       141 MEMB     2        PMPE     C2       CTL1     0.170000       12.0110           0
       142 MEMB     2        PMPE     HS       HAL1     0.900000E-01   1.00800           0
       143 MEMB     2        PMPE     O21      OSL     -0.490000       15.9994           0
       144 MEMB     2        PMPE     C21      CL       0.900000       12.0110           0
       145 MEMB     2        PMPE     O22      OBL     -0.630000       15.9994           0
       146 MEMB     2        PMPE     C22      CTL2    -0.220000       12.0110           0
       147 MEMB     2        PMPE     H2R      HAL2     0.900000E-01   1.00800           0
       148 MEMB     2        PMPE     H2S      HAL2     0.900000E-01   1.00800           0
       149 MEMB     2        PMPE     C3       CTL2     0.800000E-01   12.0110           0
       150 MEMB     2        PMPE     HX       HAL2     0.900000E-01   1.00800           0
       151 MEMB     2        PMPE     HY       HAL2     0.900000E-01   1.00800           0
       152 MEMB     2        PMPE     O31      OSL     -0.490000       15.9994           0
       153 MEMB     2        PMPE     C31      CL       0.900000       12.0110           0
       154 MEMB     2        PMPE     O32      OBL     -0.630000       15.9994           0
       155 MEMB     2        PMPE     C32      CTL2    -0.220000       12.0110           0
       156 MEMB     2        PMPE     H2X      HAL2     0.900000E-01   1.00800           0
       157 MEMB     2        PMPE     H2Y      HAL2     0.900000E-01   1.00800           0
       158 MEMB     2        PMPE     C23      CTL2    -0.180000       12.0110           0
       159 MEMB     2        PMPE     H3R      HAL2     0.900000E-01   1.00800           0
       160 MEMB     2        PMPE     H3S      HAL2     0.900000E-01   1.00800           0
       161 MEMB     2        PMPE     C24      CTL2    -0.180000       12.0110           0
       162 MEMB     2        PMPE     H4R      HAL2     0.900000E-01   1.00800           0
       163 MEMB     2        PMPE     H4S      HAL2     0.900000E-01   1.00800           0
       164 MEMB     2        PMPE     C25      CTL2    -0.180000       12.0110           0
       165 MEMB     2        PMPE     H5R      HAL2     0.900000E-01   1.00800           0
       166 MEMB     2        PMPE     H5S      HAL2     0.900000E-01   1.00800           0
       167 MEMB     2        PMPE     C26      CTL2    -0.180000       12.0110           0
       168 MEMB     2        PMPE     H6R      HAL2     0.900000E-01   1.00800           0
       169 MEMB     2        PMPE     H6S      HAL2     0.900000E-01   1.00800           0
       170 MEMB     2        PMPE     C27      CTL2    -0.180000       12.0110           0
       171 MEMB     2        PMPE     H7R      HAL2     0.900000E-01   1.00800           0
       172 MEMB     2        PMPE     H7S      HAL2     0.900000E-01   1.00800           0
       173 MEMB     2        PMPE     C28      CTL2    -0.180000       12.0110           0
       174 MEMB     2        PMPE     H8R      HAL2     0.900000E-01   1.00800           0
       175 MEMB     2        PMPE     H8S      HAL2     0.900000E-01   1.00800           0
       176 MEMB     2        PMPE     C29      CG3RC1  -0.900000E-01   12.0110           0
       177 MEMB     2        PMPE     H9R      HGA1     0.900000E-01   1.00800           0
       178 MEMB     2        PMPE     C217     CG3C31  -0.180000       12.0110           0
       179 MEMB     2        PMPE     H17R     HGA2     0.900000E-01   1.00800           0
       180 MEMB     2        PMPE     H17S     HGA2     0.900000E-01   1.00800           0
       181 MEMB     2        PMPE     C210     CG3RC1  -0.900000E-01   12.0110           0
       182 MEMB     2        PMPE     H10R     HGA1     0.900000E-01   1.00800           0
       183 MEMB     2        PMPE     C211     CTL2    -0.180000       12.0110           0
       184 MEMB     2        PMPE     H11R     HAL2     0.900000E-01   1.00800           0
       185 MEMB     2        PMPE     H11S     HAL2     0.900000E-01   1.00800           0
       186 MEMB     2        PMPE     C212     CTL2    -0.180000       12.0110           0
       187 MEMB     2        PMPE     H12R     HAL2     0.900000E-01   1.00800           0
       188 MEMB     2        PMPE     H12S     HAL2     0.900000E-01   1.00800           0
       189 MEMB     2        PMPE     C213     CTL2    -0.180000       12.0110           0
       190 MEMB     2        PMPE     H13R     HAL2     0.900000E-01   1.00800           0
       191 MEMB     2        PMPE     H13S     HAL2     0.900000E-01   1.00800           0
       192 MEMB     2        PMPE     C214     CTL2    -0.180000       12.0110           0
       193 MEMB     2        PMPE     H14R     HAL2     0.900000E-01   1.00800           0
       194 MEMB     2        PMPE     H14S     HAL2     0.900000E-01   1.00800           0
       195 MEMB     2        PMPE     C215     CTL2    -0.180000       12.0110           0
       196 MEMB     2        PMPE     H15R     HAL2     0.900000E-01   1.00800           0
       197 MEMB     2        PMPE     H15S     HAL2     0.900000E-01   1.00800           0
       198 MEMB     2        PMPE     C216     CTL3    -0.270000       12.0110           0
       199 MEMB     2        PMPE     H16R     HAL3     0.900000E-01   1.00800           0
       200 MEMB     2        PMPE     H16S     HAL3     0.900000E-01   1.00800           0
       201 MEMB     2        PMPE     H16T     HAL3     0.900000E-01   1.00800           0
       202 MEMB     2        PMPE     C33      CTL2    -0.180000       12.0110           0
       203 MEMB     2        PMPE     H3X      HAL2     0.900000E-01   1.00800           0
       204 MEMB     2        PMPE     H3Y      HAL2     0.900000E-01   1.00800           0
       205 MEMB     2        PMPE     C34      CTL2    -0.180000       12.0110           0
       206 MEMB     2        PMPE     H4X      HAL2     0.900000E-01   1.00800           0
       207 MEMB     2        PMPE     H4Y      HAL2     0.900000E-01   1.00800           0
       208 MEMB     2        PMPE     C35      CTL2    -0.180000       12.0110           0
       209 MEMB     2        PMPE     H5X      HAL2     0.900000E-01   1.00800           0
       210 MEMB     2        PMPE     H5Y      HAL2     0.900000E-01   1.00800           0
       211 MEMB     2        PMPE     C36      CTL2    -0.180000       12.0110           0
       212 MEMB     2        PMPE     H6X      HAL2     0.900000E-01   1.00800           0
       213 MEMB     2        PMPE     H6Y      HAL2     0.900000E-01   1.00800           0
       214 MEMB     2        PMPE     C37      CTL2    -0.180000       12.0110           0
       215 MEMB     2        PMPE     H7X      HAL2     0.900000E-01   1.00800           0
       216 MEMB     2        PMPE     H7Y      HAL2     0.900000E-01   1.00800           0
       217 MEMB     2        PMPE     C38      CTL2    -0.180000       12.0110           0
       218 MEMB     2        PMPE     H8X      HAL2     0.900000E-01   1.00800           0
       219 MEMB     2        PMPE     H8Y      HAL2     0.900000E-01   1.00800           0
       220 MEMB     2        PMPE     C39      CTL2    -0.180000       12.0110           0
       221 MEMB     2        PMPE     H9X      HAL2     0.900000E-01   1.00800           0
       222 MEMB     2        PMPE     H9Y      HAL2     0.900000E-01   1.00800           0
       223 MEMB     2        PMPE     C310     CTL2    -0.180000       12.0110           0
       224 MEMB     2        PMPE     H10X     HAL2     0.900000E-01   1.00800           0
       225 MEMB     2        PMPE     H10Y     HAL2     0.900000E-01   1.00800           0
       226 MEMB     2        PMPE     C311     CTL2    -0.180000       12.0110           0
       227 MEMB     2        PMPE     H11X     HAL2     0.900000E-01   1.00800           0
       228 MEMB     2        PMPE     H11Y     HAL2     0.900000E-01   1.00800           0
       229 MEMB     2        PMPE     C312     CTL2    -0.180000       12.0110           0
       230 MEMB     2        PMPE     H12X     HAL2     0.900000E-01   1.00800           0
       231 MEMB     2        PMPE     H12Y     HAL2     0.900000E-01   1.00800           0
       232 MEMB     2        PMPE     C313     CTL2    -0.180000       12.0110           0
       233 MEMB     2        PMPE     H13X     HAL2     0.900000E-01   1.00800           0
       234 MEMB     2        PMPE     H13Y     HAL2     0.900000E-01   1.00800           0
       235 MEMB     2        PMPE     C314     CTL2    -0.180000       12.0110           0
       236 MEMB     2        PMPE     H14X     HAL2     0.900000E-01   1.00800           0
       237 MEMB     2        PMPE     H14Y     HAL2     0.900000E-01   1.00800           0
       238 MEMB     2        PMPE     C315     CTL2    -0.180000       12.0110           0
       239 MEMB     2        PMPE     H15X     HAL2     0.900000E-01   1.00800           0
       240 MEMB     2        PMPE     H15Y     HAL2     0.900000E-01   1.00800           0
       241 MEMB     2        PMPE     C316     CTL3    -0.270000       12.0110           0
       242 MEMB     2        PMPE     H16X     HAL3     0.900000E-01   1.00800           0
       243 MEMB     2        PMPE     H16Y     HAL3     0.900000E-01   1.00800           0
       244 MEMB     2        PMPE     H16Z     HAL3     0.900000E-01   1.00800           0
       245 MEMB     3        OYPE     N        NH3L    -0.300000       14.0070           0
       246 MEMB     3        OYPE     HN1      HCL      0.330000       1.00800           0
       247 MEMB     3        OYPE     HN2      HCL      0.330000       1.00800           0
       248 MEMB     3        OYPE     HN3      HCL      0.330000       1.00800           0
       249 MEMB     3        OYPE     C12      CTL2     0.130000       12.0110           0
       250 MEMB     3        OYPE     H12A     HAL2     0.900000E-01   1.00800           0
       251 MEMB     3        OYPE     H12B     HAL2     0.900000E-01   1.00800           0
       252 MEMB     3        OYPE     C11      CTL2    -0.800000E-01   12.0110           0
       253 MEMB     3        OYPE     H11A     HAL2     0.900000E-01   1.00800           0
       254 MEMB     3        OYPE     H11B     HAL2     0.900000E-01   1.00800           0
       255 MEMB     3        OYPE     P        PL        1.50000       30.9740           0
       256 MEMB     3        OYPE     O13      O2L     -0.780000       15.9994           0
       257 MEMB     3        OYPE     O14      O2L     -0.780000       15.9994           0
       258 MEMB     3        OYPE     O11      OSLP    -0.570000       15.9994           0
       259 MEMB     3        OYPE     O12      OSLP    -0.570000       15.9994           0
       260 MEMB     3        OYPE     C1       CTL2    -0.800000E-01   12.0110           0
       261 MEMB     3        OYPE     HA       HAL2     0.900000E-01   1.00800           0
       262 MEMB     3        OYPE     HB       HAL2     0.900000E-01   1.00800           0
       263 MEMB     3        OYPE     C2       CTL1     0.170000       12.0110           0
       264 MEMB     3        OYPE     HS       HAL1     0.900000E-01   1.00800           0
       265 MEMB     3        OYPE     O21      OSL     -0.490000       15.9994           0
       266 MEMB     3        OYPE     C21      CL       0.900000       12.0110           0
       267 MEMB     3        OYPE     O22      OBL     -0.630000       15.9994           0
       268 MEMB     3        OYPE     C22      CTL2    -0.220000       12.0110           0
       269 MEMB     3        OYPE     H2R      HAL2     0.900000E-01   1.00800           0
       270 MEMB     3        OYPE     H2S      HAL2     0.900000E-01   1.00800           0
       271 MEMB     3        OYPE     C3       CTL2     0.800000E-01   12.0110           0
       272 MEMB     3        OYPE     HX       HAL2     0.900000E-01   1.00800           0
       273 MEMB     3        OYPE     HY       HAL2     0.900000E-01   1.00800           0
       274 MEMB     3        OYPE     O31      OSL     -0.490000       15.9994           0
       275 MEMB     3        OYPE     C31      CL       0.900000       12.0110           0
       276 MEMB     3        OYPE     O32      OBL     -0.630000       15.9994           0
       277 MEMB     3        OYPE     C32      CTL2    -0.220000       12.0110           0
       278 MEMB     3        OYPE     H2X      HAL2     0.900000E-01   1.00800           0
       279 MEMB     3        OYPE     H2Y      HAL2     0.900000E-01   1.00800           0
       280 MEMB     3        OYPE     C23      CTL2    -0.180000       12.0110           0
       281 MEMB     3        OYPE     H3R      HAL2     0.900000E-01   1.00800           0
       282 MEMB     3        OYPE     H3S      HAL2     0.900000E-01   1.00800           0
       283 MEMB     3        OYPE     C24      CTL2    -0.180000       12.0110           0
       284 MEMB     3        OYPE     H4R      HAL2     0.900000E-01   1.00800           0
       285 MEMB     3        OYPE     H4S      HAL2     0.900000E-01   1.00800           0
       286 MEMB     3        OYPE     C25      CTL2    -0.180000       12.0110           0
       287 MEMB     3        OYPE     H5R      HAL2     0.900000E-01   1.00800           0
       288 MEMB     3        OYPE     H5S      HAL2     0.900000E-01   1.00800           0
       289 MEMB     3        OYPE     C26      CTL2    -0.180000       12.0110           0
       290 MEMB     3        OYPE     H6R      HAL2     0.900000E-01   1.00800           0
       291 MEMB     3        OYPE     H6S      HAL2     0.900000E-01   1.00800           0
       292 MEMB     3        OYPE     C27      CTL2    -0.180000       12.0110           0
       293 MEMB     3        OYPE     H7R      HAL2     0.900000E-01   1.00800           0
       294 MEMB     3        OYPE     H7S      HAL2     0.900000E-01   1.00800           0
       295 MEMB     3        OYPE     C28      CTL2    -0.180000       12.0110           0
       296 MEMB     3        OYPE     H8R      HAL2     0.900000E-01   1.00800           0
       297 MEMB     3        OYPE     H8S      HAL2     0.900000E-01   1.00800           0
       298 MEMB     3        OYPE     C29      CEL1    -0.150000       12.0110           0
       299 MEMB     3        OYPE     H9R      HEL1     0.150000       1.00800           0
       300 MEMB     3        OYPE     C210     CEL1    -0.150000       12.0110           0
       301 MEMB     3        OYPE     H10R     HEL1     0.150000       1.00800           0
       302 MEMB     3        OYPE     C211     CTL2    -0.180000       12.0110           0
       303 MEMB     3        OYPE     H11R     HAL2     0.900000E-01   1.00800           0
       304 MEMB     3        OYPE     H11S     HAL2     0.900000E-01   1.00800           0
       305 MEMB     3        OYPE     C212     CTL2    -0.180000       12.0110           0
       306 MEMB     3        OYPE     H12R     HAL2     0.900000E-01   1.00800           0
       307 MEMB     3        OYPE     H12S     HAL2     0.900000E-01   1.00800           0
       308 MEMB     3        OYPE     C213     CTL2    -0.180000       12.0110           0
       309 MEMB     3        OYPE     H13R     HAL2     0.900000E-01   1.00800           0
       310 MEMB     3        OYPE     H13S     HAL2     0.900000E-01   1.00800           0
       311 MEMB     3        OYPE     C214     CTL2    -0.180000       12.0110           0
       312 MEMB     3        OYPE     H14R     HAL2     0.900000E-01   1.00800           0
       313 MEMB     3        OYPE     H14S     HAL2     0.900000E-01   1.00800           0
       314 MEMB     3        OYPE     C215     CTL2    -0.180000       12.0110           0
       315 MEMB     3        OYPE     H15R     HAL2     0.900000E-01   1.00800           0
       316 MEMB     3        OYPE     H15S     HAL2     0.900000E-01   1.00800           0
       317 MEMB     3        OYPE     C216     CTL3    -0.270000       12.0110           0
       318 MEMB     3        OYPE     H16R     HAL3     0.900000E-01   1.00800           0
       319 MEMB     3        OYPE     H16S     HAL3     0.900000E-01   1.00800           0
       320 MEMB     3        OYPE     H16T     HAL3     0.900000E-01   1.00800           0
       321 MEMB     3        OYPE     C33      CTL2    -0.180000       12.0110           0
       322 MEMB     3        OYPE     H3X      HAL2     0.900000E-01   1.00800           0
       323 MEMB     3        OYPE     H3Y      HAL2     0.900000E-01   1.00800           0
       324 MEMB     3        OYPE     C34      CTL2    -0.180000       12.0110           0
       325 MEMB     3        OYPE     H4X      HAL2     0.900000E-01   1.00800           0
       326 MEMB     3        OYPE     H4Y      HAL2     0.900000E-01   1.00800           0
       327 MEMB     3        OYPE     C35      CTL2    -0.180000       12.0110           0
       328 MEMB     3        OYPE     H5X      HAL2     0.900000E-01   1.00800           0
       329 MEMB     3        OYPE     H5Y      HAL2     0.900000E-01   1.00800           0
       330 MEMB     3        OYPE     C36      CTL2    -0.180000       12.0110           0
       331 MEMB     3        OYPE     H6X      HAL2     0.900000E-01   1.00800           0
       332 MEMB     3        OYPE     H6Y      HAL2     0.900000E-01   1.00800           0
       333 MEMB     3        OYPE     C37      CTL2    -0.180000       12.0110           0
       334 MEMB     3        OYPE     H7X      HAL2     0.900000E-01   1.00800           0
       335 MEMB     3        OYPE     H7Y      HAL2     0.900000E-01   1.00800           0
       336 MEMB     3        OYPE     C38      CTL2    -0.180000       12.0110           0
       337 MEMB     3        OYPE     H8X      HAL2     0.900000E-01   1.00800           0
       338 MEMB     3        OYPE     H8Y      HAL2     0.900000E-01   1.00800           0
       339 MEMB     3        OYPE     C39      CEL1    -0.150000       12.0110           0
       340 MEMB     3        OYPE     H9X      HEL1     0.150000       1.00800           0
       341 MEMB     3        OYPE     C310     CEL1    -0.150000       12.0110           0
       342 MEMB     3        OYPE     H10X     HEL1     0.150000       1.00800           0
       343 MEMB     3        OYPE     C311     CTL2    -0.180000       12.0110           0
       344 MEMB     3        OYPE     H11X     HAL2     0.900000E-01   1.00800           0
       345 MEMB     3        OYPE     H11Y     HAL2     0.900000E-01   1.00800           0
       346 MEMB     3        OYPE     C312     CTL2    -0.180000       12.0110           0
       347 MEMB     3        OYPE     H12X     HAL2     0.900000E-01   1.00800           0
       348 MEMB     3        OYPE     H12Y     HAL2     0.900000E-01   1.00800           0
       349 MEMB     3        OYPE     C313     CTL2    -0.180000       12.0110           0
       350 MEMB     3        OYPE     H13X     HAL2     0.900000E-01   1.00800           0
       351 MEMB     3        OYPE     H13Y     HAL2     0.900000E-01   1.00800           0
       352 MEMB     3        OYPE     C314     CTL2    -0.180000       12.0110           0
       353 MEMB     3        OYPE     H14X     HAL2     0.900000E-01   1.00800           0
       354 MEMB     3        OYPE     H14Y     HAL2     0.900000E-01   1.00800           0
       355 MEMB     3        OYPE     C315     CTL2    -0.180000       12.0110           0
       356 MEMB     3        OYPE     H15X     HAL2     0.900000E-01   1.00800           0
       357 MEMB     3        OYPE     H15Y     HAL2     0.900000E-01   1.00800           0
       358 MEMB     3        OYPE     C316     CTL2    -0.180000       12.0110           0
       359 MEMB     3        OYPE     H16X     HAL2     0.900000E-01   1.00800           0
       360 MEMB     3        OYPE     H16Y     HAL2     0.900000E-01   1.00800           0
       361 MEMB     3        OYPE     C317     CTL2    -0.180000       12.0110           0
       362 MEMB     3        OYPE     H17X     HAL2     0.900000E-01   1.00800           0
       363 MEMB     3        OYPE     H17Y     HAL2     0.900000E-01   1.00800           0
       364 MEMB     3        OYPE     C318     CTL3    -0.270000       12.0110           0
       365 MEMB     3        OYPE     H18X     HAL3     0.900000E-01   1.00800           0
       366 MEMB     3        OYPE     H18Y     HAL3     0.900000E-01   1.00800           0
       367 MEMB     3        OYPE     H18Z     HAL3     0.900000E-01   1.00800           0
       368 MEMB     4        PMPE     N        NH3L    -0.300000       14.0070           0
       369 MEMB     4        PMPE     HN1      HCL      0.330000       1.00800           0
       370 MEMB     4        PMPE     HN2      HCL      0.330000       1.00800           0
       371 MEMB     4        PMPE     HN3      HCL      0.330000       1.00800           0
       372 MEMB     4        PMPE     C12      CTL2     0.130000       12.0110           0
       373 MEMB     4        PMPE     H12A     HAL2     0.900000E-01   1.00800           0
       374 MEMB     4        PMPE     H12B     HAL2     0.900000E-01   1.00800           0
       375 MEMB     4        PMPE     C11      CTL2    -0.800000E-01   12.0110           0
       376 MEMB     4        PMPE     H11A     HAL2     0.900000E-01   1.00800           0
       377 MEMB     4        PMPE     H11B     HAL2     0.900000E-01   1.00800           0
       378 MEMB     4        PMPE     P        PL        1.50000       30.9740           0
       379 MEMB     4        PMPE     O13      O2L     -0.780000       15.9994           0
       380 MEMB     4        PMPE     O14      O2L     -0.780000       15.9994           0
       381 MEMB     4        PMPE     O11      OSLP    -0.570000       15.9994           0
       382 MEMB     4        PMPE     O12      OSLP    -0.570000       15.9994           0
       383 MEMB     4        PMPE     C1       CTL2    -0.800000E-01   12.0110           0
       384 MEMB     4        PMPE     HA       HAL2     0.900000E-01   1.00800           0
       385 MEMB     4        PMPE     HB       HAL2     0.900000E-01   1.00800           0
       386 MEMB     4        PMPE     C2       CTL1     0.170000       12.0110           0
       387 MEMB     4        PMPE     HS       HAL1     0.900000E-01   1.00800           0
       388 MEMB     4        PMPE     O21      OSL     -0.490000       15.9994           0
       389 MEMB     4        PMPE     C21      CL       0.900000       12.0110           0
       390 MEMB     4        PMPE     O22      OBL     -0.630000       15.9994           0
       391 MEMB     4        PMPE     C22      CTL2    -0.220000       12.0110           0
       392 MEMB     4        PMPE     H2R      HAL2     0.900000E-01   1.00800           0
       393 MEMB     4        PMPE     H2S      HAL2     0.900000E-01   1.00800           0
       394 MEMB     4        PMPE     C3       CTL2     0.800000E-01   12.0110           0
       395 MEMB     4        PMPE     HX       HAL2     0.900000E-01   1.00800           0
       396 MEMB     4        PMPE     HY       HAL2     0.900000E-01   1.00800           0
       397 MEMB     4        PMPE     O31      OSL     -0.490000       15.9994           0
       398 MEMB     4        PMPE     C31      CL       0.900000       12.0110           0
       399 MEMB     4        PMPE     O32      OBL     -0.630000       15.9994           0
       400 MEMB     4        PMPE     C32      CTL2    -0.220000       12.0110           0
       401 MEMB     4        PMPE     H2X      HAL2     0.900000E-01   1.00800           0
       402 MEMB     4        PMPE     H2Y      HAL2     0.900000E-01   1.00800           0
       403 MEMB     4        PMPE     C23      CTL2    -0.180000       12.0110           0
       404 MEMB     4        PMPE     H3R      HAL2     0.900000E-01   1.00800           0
       405 MEMB     4        PMPE     H3S      HAL2     0.900000E-01   1.00800           0
       406 MEMB     4        PMPE     C24      CTL2    -0.180000       12.0110           0
       407 MEMB     4        PMPE     H4R      HAL2     0.900000E-01   1.00800           0
       408 MEMB     4        PMPE     H4S      HAL2     0.900000E-01   1.00800           0
       409 MEMB     4        PMPE     C25      CTL2    -0.180000       12.0110           0
       410 MEMB     4        PMPE     H5R      HAL2     0.900000E-01   1.00800           0
       411 MEMB     4        PMPE     H5S      HAL2     0.900000E-01   1.00800           0
       412 MEMB     4        PMPE     C26      CTL2    -0.180000       12.0110           0
       413 MEMB     4        PMPE     H6R      HAL2     0.900000E-01   1.00800           0
       414 MEMB     4        PMPE     H6S      HAL2     0.900000E-01   1.00800           0
       415 MEMB     4        PMPE     C27      CTL2    -0.180000       12.0110           0
       416 MEMB     4        PMPE     H7R      HAL2     0.900000E-01   1.00800           0
       417 MEMB     4        PMPE     H7S      HAL2     0.900000E-01   1.00800           0
       418 MEMB     4        PMPE     C28      CTL2    -0.180000       12.0110           0
       419 MEMB     4        PMPE     H8R      HAL2     0.900000E-01   1.00800           0
       420 MEMB     4        PMPE     H8S      HAL2     0.900000E-01   1.00800           0
       421 MEMB     4        PMPE     C29      CG3RC1  -0.900000E-01   12.0110           0
       422 MEMB     4        PMPE     H9R      HGA1     0.900000E-01   1.00800           0
       423 MEMB     4        PMPE     C217     CG3C31  -0.180000       12.0110           0
       424 MEMB     4        PMPE     H17R     HGA2     0.900000E-01   1.00800           0
       425 MEMB     4        PMPE     H17S     HGA2     0.900000E-01   1.00800           0
       426 MEMB     4        PMPE     C210     CG3RC1  -0.900000E-01   12.0110           0
       427 MEMB     4        PMPE     H10R     HGA1     0.900000E-01   1.00800           0
       428 MEMB     4        PMPE     C211     CTL2    -0.180000       12.0110           0
       429 MEMB     4        PMPE     H11R     HAL2     0.900000E-01   1.00800           0
       430 MEMB     4        PMPE     H11S     HAL2     0.900000E-01   1.00800           0
       431 MEMB     4        PMPE     C212     CTL2    -0.180000       12.0110           0
       432 MEMB     4        PMPE     H12R     HAL2     0.900000E-01   1.00800           0
       433 MEMB     4        PMPE     H12S     HAL2     0.900000E-01   1.00800           0
       434 MEMB     4        PMPE     C213     CTL2    -0.180000       12.0110           0
       435 MEMB     4        PMPE     H13R     HAL2     0.900000E-01   1.00800           0
       436 MEMB     4        PMPE     H13S     HAL2     0.900000E-01   1.00800           0
       437 MEMB     4        PMPE     C214     CTL2    -0.180000       12.0110           0
       438 MEMB     4        PMPE     H14R     HAL2     0.900000E-01   1.00800           0
       439 MEMB     4        PMPE     H14S     HAL2     0.900000E-01   1.00800           0
       440 MEMB     4        PMPE     C215     CTL2    -0.180000       12.0110           0
       441 MEMB     4        PMPE     H15R     HAL2     0.900000E-01   1.00800           0
       442 MEMB     4        PMPE     H15S     HAL2     0.900000E-01   1.00800           0
       443 MEMB     4        PMPE     C216     CTL3    -0.270000       12.0110           0
       444 MEMB     4        PMPE     H16R     HAL3     0.900000E-01   1.00800           0
       445 MEMB     4        PMPE     H16S     HAL3     0.900000E-01   1.00800           0
       446 MEMB     4        PMPE     H16T     HAL3     0.900000E-01   1.00800           0
       447 MEMB     4        PMPE     C33      CTL2    -0.180000       12.0110           0
       448 MEMB     4        PMPE     H3X      HAL2     0.900000E-01   1.00800           0
       449 MEMB     4        PMPE     H3Y      HAL2     0.900000E-01   1.00800           0
       450 MEMB     4        PMPE     C34      CTL2    -0.180000       12.0110           0
       451 MEMB     4        PMPE     H4X      HAL2     0.900000E-01   1.00800           0
       452 MEMB     4        PMPE     H4Y      HAL2     0.900000E-01   1.00800           0
       453 MEMB     4        PMPE     C35      CTL2    -0.180000       12.0110           0
       454 MEMB     4        PMPE     H5X      HAL2     0.900000E-01   1.00800           0
       455 MEMB     4        PMPE     H5Y      HAL2     0.900000E-01   1.00800           0
       456 MEMB     4        PMPE     C36      CTL2    -0.180000       12.0110           0
       457 MEMB     4        PMPE     H6X      HAL2     0.900000E-01   1.00800           0
       458 MEMB     4        PMPE     H6Y      HAL2     0.900000E-01   1.00800           0
       459 MEMB     4        PMPE     C37      CTL2    -0.180000       12.0110           0
       460 MEMB     4        PMPE     H7X      HAL2     0.900000E-01   1.00800           0
       461 MEMB     4        PMPE     H7Y      HAL2     0.900000E-01   1.00800           0
       462 MEMB     4        PMPE     C38      CTL2    -0.180000       12.0110           0
       463 MEMB     4        PMPE     H8X      HAL2     0.900000E-01   1.00800           0
       464 MEMB     4        PMPE     H8Y      HAL2     0.900000E-01   1.00800           0
       465 MEMB     4        PMPE     C39      CTL2    -0.180000       12.0110           0
       466 MEMB     4        PMPE     H9X      HAL2     0.900000E-01   1.00800           0
       467 MEMB     4        PMPE     H9Y      HAL2     0.900000E-01   1.00800           0
       468 MEMB     4        PMPE     C310     CTL2    -0.180000       12.0110           0
       469 MEMB     4        PMPE     H10X     HAL2     0.900000E-01   1.00800           0
       470 MEMB     4        PMPE     H10Y     HAL2     0.900000E-01   1.00800           0
       471 MEMB     4        PMPE     C311     CTL2    -0.180000       12.0110           0
       472 MEMB     4        PMPE     H11X     HAL2     0.900000E-01   1.00800           0
       473 MEMB     4        PMPE     H11Y     HAL2     0.900000E-01   1.00800           0
       474 MEMB     4        PMPE     C312     CTL2    -0.180000       12.0110           0
       475 MEMB     4        PMPE     H12X     HAL2     0.900000E-01   1.00800           0
       476 MEMB     4        PMPE     H12Y     HAL2     0.900000E-01   1.00800           0
       477 MEMB     4        PMPE     C313     CTL2    -0.180000       12.0110           0
       478 MEMB     4        PMPE     H13X     HAL2     0.900000E-01   1.00800           0
       479 MEMB     4        PMPE     H13Y     HAL2     0.900000E-01   1.00800           0
       480 MEMB     4        PMPE     C314     CTL2    -0.180000       12.0110           0
       481 MEMB     4        PMPE     H14X     HAL2     0.900000E-01   1.00800           0
       482 MEMB     4        PMPE     H14Y     HAL2     0.900000E-01   1.00800           0
       483 MEMB     4        PMPE     C315     CTL2    -0.180000       12.0110           0
       484 MEMB     4        PMPE     H15X     HAL2     0.900000E-01   1.00800           0
       485 MEMB     4        PMPE     H15Y     HAL2     0.900000E-01   1.00800           0
       486 MEMB     4        PMPE     C316     CTL3    -0.270000       12.0110           0
       487 MEMB     4        PMPE     H16X     HAL3     0.900000E-01   1.00800           0
       488 MEMB     4        PMPE     H16Y     HAL3     0.900000E-01   1.00800           0
       489 MEMB     4        PMPE     H16Z     HAL3     0.900000E-01   1.00800           0
       490 MEMB     5        PYPG     C13      CTL2     0.500000E-01   12.0110           0
       491 MEMB     5        PYPG     H13A     HAL2     0.900000E-01   1.00800           0
       492 MEMB     5        PYPG     H13B     HAL2     0.900000E-01   1.00800           0
       493 MEMB     5        PYPG     OC3      OHL     -0.660000       15.9994           0
       494 MEMB     5        PYPG     HO3      HOL      0.430000       1.00800           0
       495 MEMB     5        PYPG     C12      CTL1     0.140000       12.0110           0
       496 MEMB     5        PYPG     H12A     HAL1     0.900000E-01   1.00800           0
       497 MEMB     5        PYPG     OC2      OHL     -0.660000       15.9994           0
       498 MEMB     5        PYPG     HO2      HOL      0.430000       1.00800           0
       499 MEMB     5        PYPG     C11      CTL2    -0.800000E-01   12.0110           0
       500 MEMB     5        PYPG     H11A     HAL2     0.900000E-01   1.00800           0
       501 MEMB     5        PYPG     H11B     HAL2     0.900000E-01   1.00800           0
       502 MEMB     5        PYPG     P        PL        1.50000       30.9740           0
       503 MEMB     5        PYPG     O13      O2L     -0.780000       15.9994           0
       504 MEMB     5        PYPG     O14      O2L     -0.780000       15.9994           0
       505 MEMB     5        PYPG     O11      OSLP    -0.570000       15.9994           0
       506 MEMB     5        PYPG     O12      OSLP    -0.570000       15.9994           0
       507 MEMB     5        PYPG     C1       CTL2    -0.800000E-01   12.0110           0
       508 MEMB     5        PYPG     HA       HAL2     0.900000E-01   1.00800           0
       509 MEMB     5        PYPG     HB       HAL2     0.900000E-01   1.00800           0
       510 MEMB     5        PYPG     C2       CTL1     0.170000       12.0110           0
       511 MEMB     5        PYPG     HS       HAL1     0.900000E-01   1.00800           0
       512 MEMB     5        PYPG     O21      OSL     -0.490000       15.9994           0
       513 MEMB     5        PYPG     C21      CL       0.900000       12.0110           0
       514 MEMB     5        PYPG     O22      OBL     -0.630000       15.9994           0
       515 MEMB     5        PYPG     C22      CTL2    -0.220000       12.0110           0
       516 MEMB     5        PYPG     H2R      HAL2     0.900000E-01   1.00800           0
       517 MEMB     5        PYPG     H2S      HAL2     0.900000E-01   1.00800           0
       518 MEMB     5        PYPG     C3       CTL2     0.800000E-01   12.0110           0
       519 MEMB     5        PYPG     HX       HAL2     0.900000E-01   1.00800           0
       520 MEMB     5        PYPG     HY       HAL2     0.900000E-01   1.00800           0
       521 MEMB     5        PYPG     O31      OSL     -0.490000       15.9994           0
       522 MEMB     5        PYPG     C31      CL       0.900000       12.0110           0
       523 MEMB     5        PYPG     O32      OBL     -0.630000       15.9994           0
       524 MEMB     5        PYPG     C32      CTL2    -0.220000       12.0110           0
       525 MEMB     5        PYPG     H2X      HAL2     0.900000E-01   1.00800           0
       526 MEMB     5        PYPG     H2Y      HAL2     0.900000E-01   1.00800           0
       527 MEMB     5        PYPG     C23      CTL2    -0.180000       12.0110           0
       528 MEMB     5        PYPG     H3R      HAL2     0.900000E-01   1.00800           0
       529 MEMB     5        PYPG     H3S      HAL2     0.900000E-01   1.00800           0
       530 MEMB     5        PYPG     C24      CTL2    -0.180000       12.0110           0
       531 MEMB     5        PYPG     H4R      HAL2     0.900000E-01   1.00800           0
       532 MEMB     5        PYPG     H4S      HAL2     0.900000E-01   1.00800           0
       533 MEMB     5        PYPG     C25      CTL2    -0.180000       12.0110           0
       534 MEMB     5        PYPG     H5R      HAL2     0.900000E-01   1.00800           0
       535 MEMB     5        PYPG     H5S      HAL2     0.900000E-01   1.00800           0
       536 MEMB     5        PYPG     C26      CTL2    -0.180000       12.0110           0
       537 MEMB     5        PYPG     H6R      HAL2     0.900000E-01   1.00800           0
       538 MEMB     5        PYPG     H6S      HAL2     0.900000E-01   1.00800           0
       539 MEMB     5        PYPG     C27      CTL2    -0.180000       12.0110           0
       540 MEMB     5        PYPG     H7R      HAL2     0.900000E-01   1.00800           0
       541 MEMB     5        PYPG     H7S      HAL2     0.900000E-01   1.00800           0
       542 MEMB     5        PYPG     C28      CTL2    -0.180000       12.0110           0
       543 MEMB     5        PYPG     H8R      HAL2     0.900000E-01   1.00800           0
       544 MEMB     5        PYPG     H8S      HAL2     0.900000E-01   1.00800           0
       545 MEMB     5        PYPG     C29      CEL1    -0.150000       12.0110           0
       546 MEMB     5        PYPG     H9R      HEL1     0.150000       1.00800           0
       547 MEMB     5        PYPG     C210     CEL1    -0.150000       12.0110           0
       548 MEMB     5        PYPG     H10R     HEL1     0.150000       1.00800           0
       549 MEMB     5        PYPG     C211     CTL2    -0.180000       12.0110           0
       550 MEMB     5        PYPG     H11R     HAL2     0.900000E-01   1.00800           0
       551 MEMB     5        PYPG     H11S     HAL2     0.900000E-01   1.00800           0
       552 MEMB     5        PYPG     C212     CTL2    -0.180000       12.0110           0
       553 MEMB     5        PYPG     H12R     HAL2     0.900000E-01   1.00800           0
       554 MEMB     5        PYPG     H12S     HAL2     0.900000E-01   1.00800           0
       555 MEMB     5        PYPG     C213     CTL2    -0.180000       12.0110           0
       556 MEMB     5        PYPG     H13R     HAL2     0.900000E-01   1.00800           0
       557 MEMB     5        PYPG     H13S     HAL2     0.900000E-01   1.00800           0
       558 MEMB     5        PYPG     C214     CTL2    -0.180000       12.0110           0
       559 MEMB     5        PYPG     H14R     HAL2     0.900000E-01   1.00800           0
       560 MEMB     5        PYPG     H14S     HAL2     0.900000E-01   1.00800           0
       561 MEMB     5        PYPG     C215     CTL2    -0.180000       12.0110           0
       562 MEMB     5        PYPG     H15R     HAL2     0.900000E-01   1.00800           0
       563 MEMB     5        PYPG     H15S     HAL2     0.900000E-01   1.00800           0
       564 MEMB     5        PYPG     C216     CTL3    -0.270000       12.0110           0
       565 MEMB     5        PYPG     H16R     HAL3     0.900000E-01   1.00800           0
       566 MEMB     5        PYPG     H16S     HAL3     0.900000E-01   1.00800           0
       567 MEMB     5        PYPG     H16T     HAL3     0.900000E-01   1.00800           0
       568 MEMB     5        PYPG     C33      CTL2    -0.180000       12.0110           0
       569 MEMB     5        PYPG     H3X      HAL2     0.900000E-01   1.00800           0
       570 MEMB     5        PYPG     H3Y      HAL2     0.900000E-01   1.00800           0
       571 MEMB     5        PYPG     C34      CTL2    -0.180000       12.0110           0
       572 MEMB     5        PYPG     H4X      HAL2     0.900000E-01   1.00800           0
       573 MEMB     5        PYPG     H4Y      HAL2     0.900000E-01   1.00800           0
       574 MEMB     5        PYPG     C35      CTL2    -0.180000       12.0110           0
       575 MEMB     5        PYPG     H5X      HAL2     0.900000E-01   1.00800           0
       576 MEMB     5        PYPG     H5Y      HAL2     0.900000E-01   1.00800           0
       577 MEMB     5        PYPG     C36      CTL2    -0.180000       12.0110           0
       578 MEMB     5        PYPG     H6X      HAL2     0.900000E-01   1.00800           0
       579 MEMB     5        PYPG     H6Y      HAL2     0.900000E-01   1.00800           0
       580 MEMB     5        PYPG     C37      CTL2    -0.180000       12.0110           0
       581 MEMB     5        PYPG     H7X      HAL2     0.900000E-01   1.00800           0
       582 MEMB     5        PYPG     H7Y      HAL2     0.900000E-01   1.00800           0
       583 MEMB     5        PYPG     C38      CTL2    -0.180000       12.0110           0
       584 MEMB     5        PYPG     H8X      HAL2     0.900000E-01   1.00800           0
       585 MEMB     5        PYPG     H8Y      HAL2     0.900000E-01   1.00800           0
       586 MEMB     5        PYPG     C39      CTL2    -0.180000       12.0110           0
       587 MEMB     5        PYPG     H9X      HAL2     0.900000E-01   1.00800           0
       588 MEMB     5        PYPG     H9Y      HAL2     0.900000E-01   1.00800           0
       589 MEMB     5        PYPG     C310     CTL2    -0.180000       12.0110           0
       590 MEMB     5        PYPG     H10X     HAL2     0.900000E-01   1.00800           0
       591 MEMB     5        PYPG     H10Y     HAL2     0.900000E-01   1.00800           0
       592 MEMB     5        PYPG     C311     CTL2    -0.180000       12.0110           0
       593 MEMB     5        PYPG     H11X     HAL2     0.900000E-01   1.00800           0
       594 MEMB     5        PYPG     H11Y     HAL2     0.900000E-01   1.00800           0
       595 MEMB     5        PYPG     C312     CTL2    -0.180000       12.0110           0
       596 MEMB     5        PYPG     H12X     HAL2     0.900000E-01   1.00800           0
       597 MEMB     5        PYPG     H12Y     HAL2     0.900000E-01   1.00800           0
       598 MEMB     5        PYPG     C313     CTL2    -0.180000       12.0110           0
       599 MEMB     5        PYPG     H13X     HAL2     0.900000E-01   1.00800           0
       600 MEMB     5        PYPG     H13Y     HAL2     0.900000E-01   1.00800           0
       601 MEMB     5        PYPG     C314     CTL2    -0.180000       12.0110           0
       602 MEMB     5        PYPG     H14X     HAL2     0.900000E-01   1.00800           0
       603 MEMB     5        PYPG     H14Y     HAL2     0.900000E-01   1.00800           0
       604 MEMB     5        PYPG     C315     CTL2    -0.180000       12.0110           0
       605 MEMB     5        PYPG     H15X     HAL2     0.900000E-01   1.00800           0
       606 MEMB     5        PYPG     H15Y     HAL2     0.900000E-01   1.00800           0
       607 MEMB     5        PYPG     C316     CTL3    -0.270000       12.0110           0
       608 MEMB     5        PYPG     H16X     HAL3     0.900000E-01   1.00800           0
       609 MEMB     5        PYPG     H16Y     HAL3     0.900000E-01   1.00800           0
       610 MEMB     5        PYPG     H16Z     HAL3     0.900000E-01   1.00800           0
       611 MEMB     6        PMPE     N        NH3L    -0.300000       14.0070           0
       612 MEMB     6        PMPE     HN1      HCL      0.330000       1.00800           0
       613 MEMB     6        PMPE     HN2      HCL      0.330000       1.00800           0
       614 MEMB     6        PMPE     HN3      HCL      0.330000       1.00800           0
       615 MEMB     6        PMPE     C12      CTL2     0.130000       12.0110           0
       616 MEMB     6        PMPE     H12A     HAL2     0.900000E-01   1.00800           0
       617 MEMB     6        PMPE     H12B     HAL2     0.900000E-01   1.00800           0
       618 MEMB     6        PMPE     C11      CTL2    -0.800000E-01   12.0110           0
       619 MEMB     6        PMPE     H11A     HAL2     0.900000E-01   1.00800           0
       620 MEMB     6        PMPE     H11B     HAL2     0.900000E-01   1.00800           0
       621 MEMB     6        PMPE     P        PL        1.50000       30.9740           0
       622 MEMB     6        PMPE     O13      O2L     -0.780000       15.9994           0
       623 MEMB     6        PMPE     O14      O2L     -0.780000       15.9994           0
       624 MEMB     6        PMPE     O11      OSLP    -0.570000       15.9994           0
       625 MEMB     6        PMPE     O12      OSLP    -0.570000       15.9994           0
       626 MEMB     6        PMPE     C1       CTL2    -0.800000E-01   12.0110           0
       627 MEMB     6        PMPE     HA       HAL2     0.900000E-01   1.00800           0
       628 MEMB     6        PMPE     HB       HAL2     0.900000E-01   1.00800           0
       629 MEMB     6        PMPE     C2       CTL1     0.170000       12.0110           0
       630 MEMB     6        PMPE     HS       HAL1     0.900000E-01   1.00800           0
       631 MEMB     6        PMPE     O21      OSL     -0.490000       15.9994           0
       632 MEMB     6        PMPE     C21      CL       0.900000       12.0110           0
       633 MEMB     6        PMPE     O22      OBL     -0.630000       15.9994           0
       634 MEMB     6        PMPE     C22      CTL2    -0.220000       12.0110           0
       635 MEMB     6        PMPE     H2R      HAL2     0.900000E-01   1.00800           0
       636 MEMB     6        PMPE     H2S      HAL2     0.900000E-01   1.00800           0
       637 MEMB     6        PMPE     C3       CTL2     0.800000E-01   12.0110           0
       638 MEMB     6        PMPE     HX       HAL2     0.900000E-01   1.00800           0
       639 MEMB     6        PMPE     HY       HAL2     0.900000E-01   1.00800           0
       640 MEMB     6        PMPE     O31      OSL     -0.490000       15.9994           0
       641 MEMB     6        PMPE     C31      CL       0.900000       12.0110           0
       642 MEMB     6        PMPE     O32      OBL     -0.630000       15.9994           0
       643 MEMB     6        PMPE     C32      CTL2    -0.220000       12.0110           0
       644 MEMB     6        PMPE     H2X      HAL2     0.900000E-01   1.00800           0
       645 MEMB     6        PMPE     H2Y      HAL2     0.900000E-01   1.00800           0
       646 MEMB     6        PMPE     C23      CTL2    -0.180000       12.0110           0
       647 MEMB     6        PMPE     H3R      HAL2     0.900000E-01   1.00800           0
       648 MEMB     6        PMPE     H3S      HAL2     0.900000E-01   1.00800           0
       649 MEMB     6        PMPE     C24      CTL2    -0.180000       12.0110           0
       650 MEMB     6        PMPE     H4R      HAL2     0.900000E-01   1.00800           0
       651 MEMB     6        PMPE     H4S      HAL2     0.900000E-01   1.00800           0
       652 MEMB     6        PMPE     C25      CTL2    -0.180000       12.0110           0
       653 MEMB     6        PMPE     H5R      HAL2     0.900000E-01   1.00800           0
       654 MEMB     6        PMPE     H5S      HAL2     0.900000E-01   1.00800           0
       655 MEMB     6        PMPE     C26      CTL2    -0.180000       12.0110           0
       656 MEMB     6        PMPE     H6R      HAL2     0.900000E-01   1.00800           0
       657 MEMB     6        PMPE     H6S      HAL2     0.900000E-01   1.00800           0
       658 MEMB     6        PMPE     C27      CTL2    -0.180000       12.0110           0
       659 MEMB     6        PMPE     H7R      HAL2     0.900000E-01   1.00800           0
       660 MEMB     6        PMPE     H7S      HAL2     0.900000E-01   1.00800           0
       661 MEMB     6        PMPE     C28      CTL2    -0.180000       12.0110           0
       662 MEMB     6        PMPE     H8R      HAL2     0.900000E-01   1.00800           0
       663 MEMB     6        PMPE     H8S      HAL2     0.900000E-01   1.00800           0
       664 MEMB     6        PMPE     C29      CG3RC1  -0.900000E-01   12.0110           0
       665 MEMB     6        PMPE     H9R      HGA1     0.900000E-01   1.00800           0
       666 MEMB     6        PMPE     C217     CG3C31  -0.180000       12.0110           0
       667 MEMB     6        PMPE     H17R     HGA2     0.900000E-01   1.00800           0
       668 MEMB     6        PMPE     H17S     HGA2     0.900000E-01   1.00800           0
       669 MEMB     6        PMPE     C210     CG3RC1  -0.900000E-01   12.0110           0
       670 MEMB     6        PMPE     H10R     HGA1     0.900000E-01   1.00800           0
       671 MEMB     6        PMPE     C211     CTL2    -0.180000       12.0110           0
       672 MEMB     6        PMPE     H11R     HAL2     0.900000E-01   1.00800           0
       673 MEMB     6        PMPE     H11S     HAL2     0.900000E-01   1.00800           0
       674 MEMB     6        PMPE     C212     CTL2    -0.180000       12.0110           0
       675 MEMB     6        PMPE     H12R     HAL2     0.900000E-01   1.00800           0
       676 MEMB     6        PMPE     H12S     HAL2     0.900000E-01   1.00800           0
       677 MEMB     6        PMPE     C213     CTL2    -0.180000       12.0110           0
       678 MEMB     6        PMPE     H13R     HAL2     0.900000E-01   1.00800           0
       679 MEMB     6        PMPE     H13S     HAL2     0.900000E-01   1.00800           0
       680 MEMB     6        PMPE     C214     CTL2    -0.180000       12.0110           0
       681 MEMB     6        PMPE     H14R     HAL2     0.900000E-01   1.00800           0
       682 MEMB     6        PMPE     H14S     HAL2     0.900000E-01   1.00800           0
       683 MEMB     6        PMPE     C215     CTL2    -0.180000       12.0110           0
       684 MEMB     6        PMPE     H15R     HAL2     0.900000E-01   1.00800           0
       685 MEMB     6        PMPE     H15S     HAL2     0.900000E-01   1.00800           0
       686 MEMB     6        PMPE     C216     CTL3    -0.270000       12.0110           0
       687 MEMB     6        PMPE     H16R     HAL3     0.900000E-01   1.00800           0
       688 MEMB     6        PMPE     H16S     HAL3     0.900000E-01   1.00800           0
       689 MEMB     6        PMPE     H16T     HAL3     0.900000E-01   1.00800           0
       690 MEMB     6        PMPE     C33      CTL2    -0.180000       12.0110           0
       691 MEMB     6        PMPE     H3X      HAL2     0.900000E-01   1.00800           0
       692 MEMB     6        PMPE     H3Y      HAL2     0.900000E-01   1.00800           0
       693 MEMB     6        PMPE     C34      CTL2    -0.180000       12.0110           0
       694 MEMB     6        PMPE     H4X      HAL2     0.900000E-01   1.00800           0
       695 MEMB     6        PMPE     H4Y      HAL2     0.900000E-01   1.00800           0
       696 MEMB     6        PMPE     C35      CTL2    -0.180000       12.0110           0
       697 MEMB     6        PMPE     H5X      HAL2     0.900000E-01   1.00800           0
       698 MEMB     6        PMPE     H5Y      HAL2     0.900000E-01   1.00800           0
       699 MEMB     6        PMPE     C36      CTL2    -0.180000       12.0110           0
       700 MEMB     6        PMPE     H6X      HAL2     0.900000E-01   1.00800           0
       701 MEMB     6        PMPE     H6Y      HAL2     0.900000E-01   1.00800           0
       702 MEMB     6        PMPE     C37      CTL2    -0.180000       12.0110           0
       703 MEMB     6        PMPE     H7X      HAL2     0.900000E-01   1.00800           0
       704 MEMB     6        PMPE     H7Y      HAL2     0.900000E-01   1.00800           0
       705 MEMB     6        PMPE     C38      CTL2    -0.180000       12.0110           0
       706 MEMB     6        PMPE     H8X      HAL2     0.900000E-01   1.00800           0
       707 MEMB     6        PMPE     H8Y      HAL2     0.900000E-01   1.00800           0
       708 MEMB     6        PMPE     C39      CTL2    -0.180000       12.0110           0
       709 MEMB     6        PMPE     H9X      HAL2     0.900000E-01   1.00800           0
       710 MEMB     6        PMPE     H9Y      HAL2     0.900000E-01   1.00800           0
       711 MEMB     6        PMPE     C310     CTL2    -0.180000       12.0110           0
       712 MEMB     6        PMPE     H10X     HAL2     0.900000E-01   1.00800           0
       713 MEMB     6        PMPE     H10Y     HAL2     0.900000E-01   1.00800           0
       714 MEMB     6        PMPE     C311     CTL2    -0.180000       12.0110           0
       715 MEMB     6        PMPE     H11X     HAL2     0.900000E-01   1.00800           0
       716 MEMB     6        PMPE     H11Y     HAL2     0.900000E-01   1.00800           0
       717 MEMB     6        PMPE     C312     CTL2    -0.180000       12.0110           0
       718 MEMB     6        PMPE     H12X     HAL2     0.900000E-01   1.00800           0
       719 MEMB     6        PMPE     H12Y     HAL2     0.900000E-01   1.00800           0
       720 MEMB     6        PMPE     C313     CTL2    -0.180000       12.0110           0
       721 MEMB     6        PMPE     H13X     HAL2     0.900000E-01   1.00800           0
       722 MEMB     6        PMPE     H13Y     HAL2     0.900000E-01   1.00800           0
       723 MEMB     6        PMPE     C314     CTL2    -0.180000       12.0110           0
       724 MEMB     6        PMPE     H14X     HAL2     0.900000E-01   1.00800           0
       725 MEMB     6        PMPE     H14Y     HAL2     0.900000E-01   1.00800           0
       726 MEMB     6        PMPE     C315     CTL2    -0.180000       12.0110           0
       727 MEMB     6        PMPE     H15X     HAL2     0.900000E-01   1.00800           0
       728 MEMB     6        PMPE     H15Y     HAL2     0.900000E-01   1.00800           0
       729 MEMB     6        PMPE     C316     CTL3    -0.270000       12.0110           0
       730 MEMB     6        PMPE     H16X     HAL3     0.900000E-01   1.00800           0
       731 MEMB     6        PMPE     H16Y     HAL3     0.900000E-01   1.00800           0
       732 MEMB     6        PMPE     H16Z     HAL3     0.900000E-01   1.00800           0
       733 MEMB     7        PMPE     N        NH3L    -0.300000       14.0070           0
       734 MEMB     7        PMPE     HN1      HCL      0.330000       1.00800           0
       735 MEMB     7        PMPE     HN2      HCL      0.330000       1.00800           0
       736 MEMB     7        PMPE     HN3      HCL      0.330000       1.00800           0
       737 MEMB     7        PMPE     C12      CTL2     0.130000       12.0110           0
       738 MEMB     7        PMPE     H12A     HAL2     0.900000E-01   1.00800           0
       739 MEMB     7        PMPE     H12B     HAL2     0.900000E-01   1.00800           0
       740 MEMB     7        PMPE     C11      CTL2    -0.800000E-01   12.0110           0
       741 MEMB     7        PMPE     H11A     HAL2     0.900000E-01   1.00800           0
       742 MEMB     7        PMPE     H11B     HAL2     0.900000E-01   1.00800           0
       743 MEMB     7        PMPE     P        PL        1.50000       30.9740           0
       744 MEMB     7        PMPE     O13      O2L     -0.780000       15.9994           0
       745 MEMB     7        PMPE     O14      O2L     -0.780000       15.9994           0
       746 MEMB     7        PMPE     O11      OSLP    -0.570000       15.9994           0
       747 MEMB     7        PMPE     O12      OSLP    -0.570000       15.9994           0
       748 MEMB     7        PMPE     C1       CTL2    -0.800000E-01   12.0110           0
       749 MEMB     7        PMPE     HA       HAL2     0.900000E-01   1.00800           0
       750 MEMB     7        PMPE     HB       HAL2     0.900000E-01   1.00800           0
       751 MEMB     7        PMPE     C2       CTL1     0.170000       12.0110           0
       752 MEMB     7        PMPE     HS       HAL1     0.900000E-01   1.00800           0
       753 MEMB     7        PMPE     O21      OSL     -0.490000       15.9994           0
       754 MEMB     7        PMPE     C21      CL       0.900000       12.0110           0
       755 MEMB     7        PMPE     O22      OBL     -0.630000       15.9994           0
       756 MEMB     7        PMPE     C22      CTL2    -0.220000       12.0110           0
       757 MEMB     7        PMPE     H2R      HAL2     0.900000E-01   1.00800           0
       758 MEMB     7        PMPE     H2S      HAL2     0.900000E-01   1.00800           0
       759 MEMB     7        PMPE     C3       CTL2     0.800000E-01   12.0110           0
       760 MEMB     7        PMPE     HX       HAL2     0.900000E-01   1.00800           0
       761 MEMB     7        PMPE     HY       HAL2     0.900000E-01   1.00800           0
       762 MEMB     7        PMPE     O31      OSL     -0.490000       15.9994           0
       763 MEMB     7        PMPE     C31      CL       0.900000       12.0110           0
       764 MEMB     7        PMPE     O32      OBL     -0.630000       15.9994           0
       765 MEMB     7        PMPE     C32      CTL2    -0.220000       12.0110           0
       766 MEMB     7        PMPE     H2X      HAL2     0.900000E-01   1.00800           0
       767 MEMB     7        PMPE     H2Y      HAL2     0.900000E-01   1.00800           0
       768 MEMB     7        PMPE     C23      CTL2    -0.180000       12.0110           0
       769 MEMB     7        PMPE     H3R      HAL2     0.900000E-01   1.00800           0
       770 MEMB     7        PMPE     H3S      HAL2     0.900000E-01   1.00800           0
       771 MEMB     7        PMPE     C24      CTL2    -0.180000       12.0110           0
       772 MEMB     7        PMPE     H4R      HAL2     0.900000E-01   1.00800           0
       773 MEMB     7        PMPE     H4S      HAL2     0.900000E-01   1.00800           0
       774 MEMB     7        PMPE     C25      CTL2    -0.180000       12.0110           0
       775 MEMB     7        PMPE     H5R      HAL2     0.900000E-01   1.00800           0
       776 MEMB     7        PMPE     H5S      HAL2     0.900000E-01   1.00800           0
       777 MEMB     7        PMPE     C26      CTL2    -0.180000       12.0110           0
       778 MEMB     7        PMPE     H6R      HAL2     0.900000E-01   1.00800           0
       779 MEMB     7        PMPE     H6S      HAL2     0.900000E-01   1.00800           0
       780 MEMB     7        PMPE     C27      CTL2    -0.180000       12.0110           0
       781 MEMB     7        PMPE     H7R      HAL2     0.900000E-01   1.00800           0
       782 MEMB     7        PMPE     H7S      HAL2     0.900000E-01   1.00800           0
       783 MEMB     7        PMPE     C28      CTL2    -0.180000       12.0110           0
       784 MEMB     7        PMPE     H8R      HAL2     0.900000E-01   1.00800           0
       785 MEMB     7        PMPE     H8S      HAL2     0.900000E-01   1.00800           0
       786 MEMB     7        PMPE     C29      CG3RC1  -0.900000E-01   12.0110           0
       787 MEMB     7        PMPE     H9R      HGA1     0.900000E-01   1.00800           0
       788 MEMB     7        PMPE     C217     CG3C31  -0.180000       12.0110           0
       789 MEMB     7        PMPE     H17R     HGA2     0.900000E-01   1.00800           0
       790 MEMB     7        PMPE     H17S     HGA2     0.900000E-01   1.00800           0
       791 MEMB     7        PMPE     C210     CG3RC1  -0.900000E-01   12.0110           0
       792 MEMB     7        PMPE     H10R     HGA1     0.900000E-01   1.00800           0
       793 MEMB     7        PMPE     C211     CTL2    -0.180000       12.0110           0
       794 MEMB     7        PMPE     H11R     HAL2     0.900000E-01   1.00800           0
       795 MEMB     7        PMPE     H11S     HAL2     0.900000E-01   1.00800           0
       796 MEMB     7        PMPE     C212     CTL2    -0.180000       12.0110           0
       797 MEMB     7        PMPE     H12R     HAL2     0.900000E-01   1.00800           0
       798 MEMB     7        PMPE     H12S     HAL2     0.900000E-01   1.00800           0
       799 MEMB     7        PMPE     C213     CTL2    -0.180000       12.0110           0
       800 MEMB     7        PMPE     H13R     HAL2     0.900000E-01   1.00800           0
       801 MEMB     7        PMPE     H13S     HAL2     0.900000E-01   1.00800           0
       802 MEMB     7        PMPE     C214     CTL2    -0.180000       12.0110           0
       803 MEMB     7        PMPE     H14R     HAL2     0.900000E-01   1.00800           0
       804 MEMB     7        PMPE     H14S     HAL2     0.900000E-01   1.00800           0
       805 MEMB     7        PMPE     C215     CTL2    -0.180000       12.0110           0
       806 MEMB     7        PMPE     H15R     HAL2     0.900000E-01   1.00800           0
       807 MEMB     7        PMPE     H15S     HAL2     0.900000E-01   1.00800           0
       808 MEMB     7        PMPE     C216     CTL3    -0.270000       12.0110           0
       809 MEMB     7        PMPE     H16R     HAL3     0.900000E-01   1.00800           0
       810 MEMB     7        PMPE     H16S     HAL3     0.900000E-01   1.00800           0
       811 MEMB     7        PMPE     H16T     HAL3     0.900000E-01   1.00800           0
       812 MEMB     7        PMPE     C33      CTL2    -0.180000       12.0110           0
       813 MEMB     7        PMPE     H3X      HAL2     0.900000E-01   1.00800           0
       814 MEMB     7        PMPE     H3Y      HAL2     0.900000E-01   1.00800           0
       815 MEMB     7        PMPE     C34      CTL2    -0.180000       12.0110           0
       816 MEMB     7        PMPE     H4X      HAL2     0.900000E-01   1.00800           0
       817 MEMB     7        PMPE     H4Y      HAL2     0.900000E-01   1.00800           0
       818 MEMB     7        PMPE     C35      CTL2    -0.180000       12.0110           0
       819 MEMB     7        PMPE     H5X      HAL2     0.900000E-01   1.00800           0
       820 MEMB     7        PMPE     H5Y      HAL2     0.900000E-01   1.00800           0
       821 MEMB     7        PMPE     C36      CTL2    -0.180000       12.0110           0
       822 MEMB     7        PMPE     H6X      HAL2     0.900000E-01   1.00800           0
       823 MEMB     7        PMPE     H6Y      HAL2     0.900000E-01   1.00800           0
       824 MEMB     7        PMPE     C37      CTL2    -0.180000       12.0110           0
       825 MEMB     7        PMPE     H7X      HAL2     0.900000E-01   1.00800           0
       826 MEMB     7        PMPE     H7Y      HAL2     0.900000E-01   1.00800           0
       827 MEMB     7        PMPE     C38      CTL2    -0.180000       12.0110           0
       828 MEMB     7        PMPE     H8X      HAL2     0.900000E-01   1.00800           0
       829 MEMB     7        PMPE     H8Y      HAL2     0.900000E-01   1.00800           0
       830 MEMB     7        PMPE     C39      CTL2    -0.180000       12.0110           0
       831 MEMB     7        PMPE     H9X      HAL2     0.900000E-01   1.00800           0
       832 MEMB     7        PMPE     H9Y      HAL2     0.900000E-01   1.00800           0
       833 MEMB     7        PMPE     C310     CTL2    -0.180000       12.0110           0
       834 MEMB     7        PMPE     H10X     HAL2     0.900000E-01   1.00800           0
       835 MEMB     7        PMPE     H10Y     HAL2     0.900000E-01   1.00800           0
       836 MEMB     7        PMPE     C311     CTL2    -0.180000       12.0110           0
       837 MEMB     7        PMPE     H11X     HAL2     0.900000E-01   1.00800           0
       838 MEMB     7        PMPE     H11Y     HAL2     0.900000E-01   1.00800           0
       839 MEMB     7        PMPE     C312     CTL2    -0.180000       12.0110           0
       840 MEMB     7        PMPE     H12X     HAL2     0.900000E-01   1.00800           0
       841 MEMB     7        PMPE     H12Y     HAL2     0.900000E-01   1.00800           0
       842 MEMB     7        PMPE     C313     CTL2    -0.180000       12.0110           0
       843 MEMB     7        PMPE     H13X     HAL2     0.900000E-01   1.00800           0
       844 MEMB     7        PMPE     H13Y     HAL2     0.900000E-01   1.00800           0
       845 MEMB     7        PMPE     C314     CTL2    -0.180000       12.0110           0
       846 MEMB     7        PMPE     H14X     HAL2     0.900000E-01   1.00800           0
       847 MEMB     7        PMPE     H14Y     HAL2     0.900000E-01   1.00800           0
       848 MEMB     7        PMPE     C315     CTL2    -0.180000       12.0110           0
       849 MEMB     7        PMPE     H15X     HAL2     0.900000E-01   1.00800           0
       850 MEMB     7        PMPE     H15Y     HAL2     0.900000E-01   1.00800           0
       851 MEMB     7        PMPE     C316     CTL3    -0.270000       12.0110           0
       852 MEMB     7        PMPE     H16X     HAL3     0.900000E-01   1.00800           0
       853 MEMB     7        PMPE     H16Y     HAL3     0.900000E-01   1.00800           0
       854 MEMB     7        PMPE     H16Z     HAL3     0.900000E-01   1.00800           0
       855 MEMB     8        PMPE     N        NH3L    -0.300000       14.0070           0
       856 MEMB     8        PMPE     HN1      HCL      0.330000       1.00800           0
       857 MEMB     8        PMPE     HN2      HCL      0.330000       1.00800           0
       858 MEMB     8        PMPE     HN3      HCL      0.330000       1.00800           0
       859 MEMB     8        PMPE     C12      CTL2     0.130000       12.0110           0
       860 MEMB     8        PMPE     H12A     HAL2     0.900000E-01   1.00800           0
       861 MEMB     8        PMPE     H12B     HAL2     0.900000E-01   1.00800           0
       862 MEMB     8        PMPE     C11      CTL2    -0.800000E-01   12.0110           0
       863 MEMB     8        PMPE     H11A     HAL2     0.900000E-01   1.00800           0
       864 MEMB     8        PMPE     H11B     HAL2     0.900000E-01   1.00800           0
       865 MEMB     8        PMPE     P        PL        1.50000       30.9740           0
       866 MEMB     8        PMPE     O13      O2L     -0.780000       15.9994           0
       867 MEMB     8        PMPE     O14      O2L     -0.780000       15.9994           0
       868 MEMB     8        PMPE     O11      OSLP    -0.570000       15.9994           0
       869 MEMB     8        PMPE     O12      OSLP    -0.570000       15.9994           0
       870 MEMB     8        PMPE     C1       CTL2    -0.800000E-01   12.0110           0
       871 MEMB     8        PMPE     HA       HAL2     0.900000E-01   1.00800           0
       872 MEMB     8        PMPE     HB       HAL2     0.900000E-01   1.00800           0
       873 MEMB     8        PMPE     C2       CTL1     0.170000       12.0110           0
       874 MEMB     8        PMPE     HS       HAL1     0.900000E-01   1.00800           0
       875 MEMB     8        PMPE     O21      OSL     -0.490000       15.9994           0
       876 MEMB     8        PMPE     C21      CL       0.900000       12.0110           0
       877 MEMB     8        PMPE     O22      OBL     -0.630000       15.9994           0
       878 MEMB     8        PMPE     C22      CTL2    -0.220000       12.0110           0
       879 MEMB     8        PMPE     H2R      HAL2     0.900000E-01   1.00800           0
       880 MEMB     8        PMPE     H2S      HAL2     0.900000E-01   1.00800           0
       881 MEMB     8        PMPE     C3       CTL2     0.800000E-01   12.0110           0
       882 MEMB     8        PMPE     HX       HAL2     0.900000E-01   1.00800           0
       883 MEMB     8        PMPE     HY       HAL2     0.900000E-01   1.00800           0
       884 MEMB     8        PMPE     O31      OSL     -0.490000       15.9994           0
       885 MEMB     8        PMPE     C31      CL       0.900000       12.0110           0
       886 MEMB     8        PMPE     O32      OBL     -0.630000       15.9994           0
       887 MEMB     8        PMPE     C32      CTL2    -0.220000       12.0110           0
       888 MEMB     8        PMPE     H2X      HAL2     0.900000E-01   1.00800           0
       889 MEMB     8        PMPE     H2Y      HAL2     0.900000E-01   1.00800           0
       890 MEMB     8        PMPE     C23      CTL2    -0.180000       12.0110           0
       891 MEMB     8        PMPE     H3R      HAL2     0.900000E-01   1.00800           0
       892 MEMB     8        PMPE     H3S      HAL2     0.900000E-01   1.00800           0
       893 MEMB     8        PMPE     C24      CTL2    -0.180000       12.0110           0
       894 MEMB     8        PMPE     H4R      HAL2     0.900000E-01   1.00800           0
       895 MEMB     8        PMPE     H4S      HAL2     0.900000E-01   1.00800           0
       896 MEMB     8        PMPE     C25      CTL2    -0.180000       12.0110           0
       897 MEMB     8        PMPE     H5R      HAL2     0.900000E-01   1.00800           0
       898 MEMB     8        PMPE     H5S      HAL2     0.900000E-01   1.00800           0
       899 MEMB     8        PMPE     C26      CTL2    -0.180000       12.0110           0
       900 MEMB     8        PMPE     H6R      HAL2     0.900000E-01   1.00800           0
       901 MEMB     8        PMPE     H6S      HAL2     0.900000E-01   1.00800           0
       902 MEMB     8        PMPE     C27      CTL2    -0.180000       12.0110           0
       903 MEMB     8        PMPE     H7R      HAL2     0.900000E-01   1.00800           0
       904 MEMB     8        PMPE     H7S      HAL2     0.900000E-01   1.00800           0
       905 MEMB     8        PMPE     C28      CTL2    -0.180000       12.0110           0
       906 MEMB     8        PMPE     H8R      HAL2     0.900000E-01   1.00800           0
       907 MEMB     8        PMPE     H8S      HAL2     0.900000E-01   1.00800           0
       908 MEMB     8        PMPE     C29      CG3RC1  -0.900000E-01   12.0110           0
       909 MEMB     8        PMPE     H9R      HGA1     0.900000E-01   1.00800           0
       910 MEMB     8        PMPE     C217     CG3C31  -0.180000       12.0110           0
       911 MEMB     8        PMPE     H17R     HGA2     0.900000E-01   1.00800           0
       912 MEMB     8        PMPE     H17S     HGA2     0.900000E-01   1.00800           0
       913 MEMB     8        PMPE     C210     CG3RC1  -0.900000E-01   12.0110           0
       914 MEMB     8        PMPE     H10R     HGA1     0.900000E-01   1.00800           0
       915 MEMB     8        PMPE     C211     CTL2    -0.180000       12.0110           0
       916 MEMB     8        PMPE     H11R     HAL2     0.900000E-01   1.00800           0
       917 MEMB     8        PMPE     H11S     HAL2     0.900000E-01   1.00800           0
       918 MEMB     8        PMPE     C212     CTL2    -0.180000       12.0110           0
       919 MEMB     8        PMPE     H12R     HAL2     0.900000E-01   1.00800           0
       920 MEMB     8        PMPE     H12S     HAL2     0.900000E-01   1.00800           0
       921 MEMB     8        PMPE     C213     CTL2    -0.180000       12.0110           0
       922 MEMB     8        PMPE     H13R     HAL2     0.900000E-01   1.00800           0
       923 MEMB     8        PMPE     H13S     HAL2     0.900000E-01   1.00800           0
       924 MEMB     8        PMPE     C214     CTL2    -0.180000       12.0110           0
       925 MEMB     8        PMPE     H14R     HAL2     0.900000E-01   1.00800           0
       926 MEMB     8        PMPE     H14S     HAL2     0.900000E-01   1.00800           0
       927 MEMB     8        PMPE     C215     CTL2    -0.180000       12.0110           0
       928 MEMB     8        PMPE     H15R     HAL2     0.900000E-01   1.00800           0
       929 MEMB     8        PMPE     H15S     HAL2     0.900000E-01   1.00800           0
       930 MEMB     8        PMPE     C216     CTL3    -0.270000       12.0110           0
       931 MEMB     8        PMPE     H16R     HAL3     0.900000E-01   1.00800           0
       932 MEMB     8        PMPE     H16S     HAL3     0.900000E-01   1.00800           0
       933 MEMB     8        PMPE     H16T     HAL3     0.900000E-01   1.00800           0
       934 MEMB     8        PMPE     C33      CTL2    -0.180000       12.0110           0
       935 MEMB     8        PMPE     H3X      HAL2     0.900000E-01   1.00800           0
       936 MEMB     8        PMPE     H3Y      HAL2     0.900000E-01   1.00800           0
       937 MEMB     8        PMPE     C34      CTL2    -0.180000       12.0110           0
       938 MEMB     8        PMPE     H4X      HAL2     0.900000E-01   1.00800           0
       939 MEMB     8        PMPE     H4Y      HAL2     0.900000E-01   1.00800           0
       940 MEMB     8        PMPE     C35      CTL2    -0.180000       12.0110           0
       941 MEMB     8        PMPE     H5X      HAL2     0.900000E-01   1.00800           0
       942 MEMB     8        PMPE     H5Y      HAL2     0.900000E-01   1.00800           0
       943 MEMB     8        PMPE     C36      CTL2    -0.180000       12.0110           0
       944 MEMB     8        PMPE     H6X      HAL2     0.900000E-01   1.00800           0
       945 MEMB     8        PMPE     H6Y      HAL2     0.900000E-01   1.00800           0
       946 MEMB     8        PMPE     C37      CTL2    -0.180000       12.0110           0
       947 MEMB     8        PMPE     H7X      HAL2     0.900000E-01   1.00800           0
       948 MEMB     8        PMPE     H7Y      HAL2     0.900000E-01   1.00800           0
       949 MEMB     8        PMPE     C38      CTL2    -0.180000       12.0110           0
       950 MEMB     8        PMPE     H8X      HAL2     0.900000E-01   1.00800           0
       951 MEMB     8        PMPE     H8Y      HAL2     0.900000E-01   1.00800           0
       952 MEMB     8        PMPE     C39      CTL2    -0.180000       12.0110           0
       953 MEMB     8        PMPE     H9X      HAL2     0.900000E-01   1.00800           0
       954 MEMB     8        PMPE     H9Y      HAL2     0.900000E-01   1.00800           0
       955 MEMB     8        PMPE     C310     CTL2    -0.180000       12.0110           0
       956 MEMB     8        PMPE     H10X     HAL2     0.900000E-01   1.00800           0
       957 MEMB     8        PMPE     H10Y     HAL2     0.900000E-01   1.00800           0
       958 MEMB     8        PMPE     C311     CTL2    -0.180000       12.0110           0
       959 MEMB     8        PMPE     H11X     HAL2     0.900000E-01   1.00800           0
       960 MEMB     8        PMPE     H11Y     HAL2     0.900000E-01   1.00800           0
       961 MEMB     8        PMPE     C312     CTL2    -0.180000       12.0110           0
       962 MEMB     8        PMPE     H12X     HAL2     0.900000E-01   1.00800           0
       963 MEMB     8        PMPE     H12Y     HAL2     0.900000E-01   1.00800           0
       964 MEMB     8        PMPE     C313     CTL2    -0.180000       12.0110           0
       965 MEMB     8        PMPE     H13X     HAL2     0.900000E-01   1.00800           0
       966 MEMB     8        PMPE     H13Y     HAL2     0.900000E-01   1.00800           0
       967 MEMB     8        PMPE     C314     CTL2    -0.180000       12.0110           0
       968 MEMB     8        PMPE     H14X     HAL2     0.900000E-01   1.00800           0
       969 MEMB     8        PMPE     H14Y     HAL2     0.900000E-01   1.00800           0
       970 MEMB     8        PMPE     C315     CTL2    -0.180000       12.0110           0
       971 MEMB     8        PMPE     H15X     HAL2     0.900000E-01   1.00800           0
       972 MEMB     8        PMPE     H15Y     HAL2     0.900000E-01   1.00800           0
       973 MEMB     8        PMPE     C316     CTL3    -0.270000       12.0110           0
       974 MEMB     8        PMPE     H16X     HAL3     0.900000E-01   1.00800           0
       975 MEMB     8        PMPE     H16Y     HAL3     0.900000E-01   1.00800           0
       976 MEMB     8        PMPE     H16Z     HAL3     0.900000E-01   1.00800           0
       977 MEMB     9        POPE     N        NH3L    -0.300000       14.0070           0
       978 MEMB     9        POPE     HN1      HCL      0.330000       1.00800           0
       979 MEMB     9        POPE     HN2      HCL      0.330000       1.00800           0
       980 MEMB     9        POPE     HN3      HCL      0.330000       1.00800           0
       981 MEMB     9        POPE     C12      CTL2     0.130000       12.0110           0
       982 MEMB     9        POPE     H12A     HAL2     0.900000E-01   1.00800           0
       983 MEMB     9        POPE     H12B     HAL2     0.900000E-01   1.00800           0
       984 MEMB     9        POPE     C11      CTL2    -0.800000E-01   12.0110           0
       985 MEMB     9        POPE     H11A     HAL2     0.900000E-01   1.00800           0
       986 MEMB     9        POPE     H11B     HAL2     0.900000E-01   1.00800           0
       987 MEMB     9        POPE     P        PL        1.50000       30.9740           0
       988 MEMB     9        POPE     O13      O2L     -0.780000       15.9994           0
       989 MEMB     9        POPE     O14      O2L     -0.780000       15.9994           0
       990 MEMB     9        POPE     O11      OSLP    -0.570000       15.9994           0
       991 MEMB     9        POPE     O12      OSLP    -0.570000       15.9994           0
       992 MEMB     9        POPE     C1       CTL2    -0.800000E-01   12.0110           0
       993 MEMB     9        POPE     HA       HAL2     0.900000E-01   1.00800           0
       994 MEMB     9        POPE     HB       HAL2     0.900000E-01   1.00800           0
       995 MEMB     9        POPE     C2       CTL1     0.170000       12.0110           0
       996 MEMB     9        POPE     HS       HAL1     0.900000E-01   1.00800           0
       997 MEMB     9        POPE     O21      OSL     -0.490000       15.9994           0
       998 MEMB     9        POPE     C21      CL       0.900000       12.0110           0
       999 MEMB     9        POPE     O22      OBL     -0.630000       15.9994           0
      1000 MEMB     9        POPE     C22      CTL2    -0.220000       12.0110           0
      1001 MEMB     9        POPE     H2R      HAL2     0.900000E-01   1.00800           0
      1002 MEMB     9        POPE     H2S      HAL2     0.900000E-01   1.00800           0
      1003 MEMB     9        POPE     C3       CTL2     0.800000E-01   12.0110           0
      1004 MEMB     9        POPE     HX       HAL2     0.900000E-01   1.00800           0
      1005 MEMB     9        POPE     HY       HAL2     0.900000E-01   1.00800           0
      1006 MEMB     9        POPE     O31      OSL     -0.490000       15.9994           0
      1007 MEMB     9        POPE     C31      CL       0.900000       12.0110           0
      1008 MEMB     9        POPE     O32      OBL     -0.630000       15.9994           0
      1009 MEMB     9        POPE     C32      CTL2    -0.220000       12.0110           0
      1010 MEMB     9        POPE     H2X      HAL2     0.900000E-01   1.00800           0
      1011 MEMB     9        POPE     H2Y      HAL2     0.900000E-01   1.00800           0
      1012 MEMB     9        POPE     C23      CTL2    -0.180000       12.0110           0
      1013 MEMB     9        POPE     H3R      HAL2     0.900000E-01   1.00800           0
      1014 MEMB     9        POPE     H3S      HAL2     0.900000E-01   1.00800           0
      1015 MEMB     9        POPE     C24      CTL2    -0.180000       12.0110           0
      1016 MEMB     9        POPE     H4R      HAL2     0.900000E-01   1.00800           0
      1017 MEMB     9        POPE     H4S      HAL2     0.900000E-01   1.00800           0
      1018 MEMB     9        POPE     C25      CTL2    -0.180000       12.0110           0
      1019 MEMB     9        POPE     H5R      HAL2     0.900000E-01   1.00800           0
      1020 MEMB     9        POPE     H5S      HAL2     0.900000E-01   1.00800           0
      1021 MEMB     9        POPE     C26      CTL2    -0.180000       12.0110           0
      1022 MEMB     9        POPE     H6R      HAL2     0.900000E-01   1.00800           0
      1023 MEMB     9        POPE     H6S      HAL2     0.900000E-01   1.00800           0
      1024 MEMB     9        POPE     C27      CTL2    -0.180000       12.0110           0
      1025 MEMB     9        POPE     H7R      HAL2     0.900000E-01   1.00800           0
      1026 MEMB     9        POPE     H7S      HAL2     0.900000E-01   1.00800           0
      1027 MEMB     9        POPE     C28      CTL2    -0.180000       12.0110           0
      1028 MEMB     9        POPE     H8R      HAL2     0.900000E-01   1.00800           0
      1029 MEMB     9        POPE     H8S      HAL2     0.900000E-01   1.00800           0
      1030 MEMB     9        POPE     C29      CEL1    -0.150000       12.0110           0
      1031 MEMB     9        POPE     H91      HEL1     0.150000       1.00800           0
      1032 MEMB     9        POPE     C210     CEL1    -0.150000       12.0110           0
      1033 MEMB     9        POPE     H101     HEL1     0.150000       1.00800           0
      1034 MEMB     9        POPE     C211     CTL2    -0.180000       12.0110           0
      1035 MEMB     9        POPE     H11R     HAL2     0.900000E-01   1.00800           0
      1036 MEMB     9        POPE     H11S     HAL2     0.900000E-01   1.00800           0
      1037 MEMB     9        POPE     C212     CTL2    -0.180000       12.0110           0
      1038 MEMB     9        POPE     H12R     HAL2     0.900000E-01   1.00800           0
      1039 MEMB     9        POPE     H12S     HAL2     0.900000E-01   1.00800           0
      1040 MEMB     9        POPE     C213     CTL2    -0.180000       12.0110           0
      1041 MEMB     9        POPE     H13R     HAL2     0.900000E-01   1.00800           0
      1042 MEMB     9        POPE     H13S     HAL2     0.900000E-01   1.00800           0
      1043 MEMB     9        POPE     C214     CTL2    -0.180000       12.0110           0
      1044 MEMB     9        POPE     H14R     HAL2     0.900000E-01   1.00800           0
      1045 MEMB     9        POPE     H14S     HAL2     0.900000E-01   1.00800           0
      1046 MEMB     9        POPE     C215     CTL2    -0.180000       12.0110           0
      1047 MEMB     9        POPE     H15R     HAL2     0.900000E-01   1.00800           0
      1048 MEMB     9        POPE     H15S     HAL2     0.900000E-01   1.00800           0
      1049 MEMB     9        POPE     C216     CTL2    -0.180000       12.0110           0
      1050 MEMB     9        POPE     H16R     HAL2     0.900000E-01   1.00800           0
      1051 MEMB     9        POPE     H16S     HAL2     0.900000E-01   1.00800           0
      1052 MEMB     9        POPE     C217     CTL2    -0.180000       12.0110           0
      1053 MEMB     9        POPE     H17R     HAL2     0.900000E-01   1.00800           0
      1054 MEMB     9        POPE     H17S     HAL2     0.900000E-01   1.00800           0
      1055 MEMB     9        POPE     C218     CTL3    -0.270000       12.0110           0
      1056 MEMB     9        POPE     H18R     HAL3     0.900000E-01   1.00800           0
      1057 MEMB     9        POPE     H18S     HAL3     0.900000E-01   1.00800           0
      1058 MEMB     9        POPE     H18T     HAL3     0.900000E-01   1.00800           0
      1059 MEMB     9        POPE     C33      CTL2    -0.180000       12.0110           0
      1060 MEMB     9        POPE     H3X      HAL2     0.900000E-01   1.00800           0
      1061 MEMB     9        POPE     H3Y      HAL2     0.900000E-01   1.00800           0
      1062 MEMB     9        POPE     C34      CTL2    -0.180000       12.0110           0
      1063 MEMB     9        POPE     H4X      HAL2     0.900000E-01   1.00800           0
      1064 MEMB     9        POPE     H4Y      HAL2     0.900000E-01   1.00800           0
      1065 MEMB     9        POPE     C35      CTL2    -0.180000       12.0110           0
      1066 MEMB     9        POPE     H5X      HAL2     0.900000E-01   1.00800           0
      1067 MEMB     9        POPE     H5Y      HAL2     0.900000E-01   1.00800           0
      1068 MEMB     9        POPE     C36      CTL2    -0.180000       12.0110           0
      1069 MEMB     9        POPE     H6X      HAL2     0.900000E-01   1.00800           0
      1070 MEMB     9        POPE     H6Y      HAL2     0.900000E-01   1.00800           0
      1071 MEMB     9        POPE     C37      CTL2    -0.180000       12.0110           0
      1072 MEMB     9        POPE     H7X      HAL2     0.900000E-01   1.00800           0
      1073 MEMB     9        POPE     H7Y      HAL2     0.900000E-01   1.00800           0
      1074 MEMB     9        POPE     C38      CTL2    -0.180000       12.0110           0
      1075 MEMB     9        POPE     H8X      HAL2     0.900000E-01   1.00800           0
      1076 MEMB     9        POPE     H8Y      HAL2     0.900000E-01   1.00800           0
      1077 MEMB     9        POPE     C39      CTL2    -0.180000       12.0110           0
      1078 MEMB     9        POPE     H9X      HAL2     0.900000E-01   1.00800           0
      1079 MEMB     9        POPE     H9Y      HAL2     0.900000E-01   1.00800           0
      1080 MEMB     9        POPE     C310     CTL2    -0.180000       12.0110           0
      1081 MEMB     9        POPE     H10X     HAL2     0.900000E-01   1.00800           0
      1082 MEMB     9        POPE     H10Y     HAL2     0.900000E-01   1.00800           0
      1083 MEMB     9        POPE     C311     CTL2    -0.180000       12.0110           0
      1084 MEMB     9        POPE     H11X     HAL2     0.900000E-01   1.00800           0
      1085 MEMB     9        POPE     H11Y     HAL2     0.900000E-01   1.00800           0
      1086 MEMB     9        POPE     C312     CTL2    -0.180000       12.0110           0
      1087 MEMB     9        POPE     H12X     HAL2     0.900000E-01   1.00800           0
      1088 MEMB     9        POPE     H12Y     HAL2     0.900000E-01   1.00800           0
      1089 MEMB     9        POPE     C313     CTL2    -0.180000       12.0110           0
      1090 MEMB     9        POPE     H13X     HAL2     0.900000E-01   1.00800           0
      1091 MEMB     9        POPE     H13Y     HAL2     0.900000E-01   1.00800           0
      1092 MEMB     9        POPE     C314     CTL2    -0.180000       12.0110           0
      1093 MEMB     9        POPE     H14X     HAL2     0.900000E-01   1.00800           0
      1094 MEMB     9        POPE     H14Y     HAL2     0.900000E-01   1.00800           0
      1095 MEMB     9        POPE     C315     CTL2    -0.180000       12.0110           0
      1096 MEMB     9        POPE     H15X     HAL2     0.900000E-01   1.00800           0
      1097 MEMB     9        POPE     H15Y     HAL2     0.900000E-01   1.00800           0
      1098 MEMB     9        POPE     C316     CTL3    -0.270000       12.0110           0
      1099 MEMB     9        POPE     H16X     HAL3     0.900000E-01   1.00800           0
      1100 MEMB     9        POPE     H16Y     HAL3     0.900000E-01   1.00800           0
      1101 MEMB     9        POPE     H16Z     HAL3     0.900000E-01   1.00800           0
      1102 MEMB     10       PMPE     N        NH3L    -0.300000       14.0070           0
      1103 MEMB     10       PMPE     HN1      HCL      0.330000       1.00800           0
      1104 MEMB     10       PMPE     HN2      HCL      0.330000       1.00800           0
      1105 MEMB     10       PMPE     HN3      HCL      0.330000       1.00800           0
      1106 MEMB     10       PMPE     C12      CTL2     0.130000       12.0110           0
      1107 MEMB     10       PMPE     H12A     HAL2     0.900000E-01   1.00800           0
      1108 MEMB     10       PMPE     H12B     HAL2     0.900000E-01   1.00800           0
      1109 MEMB     10       PMPE     C11      CTL2    -0.800000E-01   12.0110           0
      1110 MEMB     10       PMPE     H11A     HAL2     0.900000E-01   1.00800           0
      1111 MEMB     10       PMPE     H11B     HAL2     0.900000E-01   1.00800           0
      1112 MEMB     10       PMPE     P        PL        1.50000       30.9740           0
      1113 MEMB     10       PMPE     O13      O2L     -0.780000       15.9994           0
      1114 MEMB     10       PMPE     O14      O2L     -0.780000       15.9994           0
      1115 MEMB     10       PMPE     O11      OSLP    -0.570000       15.9994           0
      1116 MEMB     10       PMPE     O12      OSLP    -0.570000       15.9994           0
      1117 MEMB     10       PMPE     C1       CTL2    -0.800000E-01   12.0110           0
      1118 MEMB     10       PMPE     HA       HAL2     0.900000E-01   1.00800           0
      1119 MEMB     10       PMPE     HB       HAL2     0.900000E-01   1.00800           0
      1120 MEMB     10       PMPE     C2       CTL1     0.170000       12.0110           0
      1121 MEMB     10       PMPE     HS       HAL1     0.900000E-01   1.00800           0
      1122 MEMB     10       PMPE     O21      OSL     -0.490000       15.9994           0
      1123 MEMB     10       PMPE     C21      CL       0.900000       12.0110           0
      1124 MEMB     10       PMPE     O22      OBL     -0.630000       15.9994           0
      1125 MEMB     10       PMPE     C22      CTL2    -0.220000       12.0110           0
      1126 MEMB     10       PMPE     H2R      HAL2     0.900000E-01   1.00800           0
      1127 MEMB     10       PMPE     H2S      HAL2     0.900000E-01   1.00800           0
      1128 MEMB     10       PMPE     C3       CTL2     0.800000E-01   12.0110           0
      1129 MEMB     10       PMPE     HX       HAL2     0.900000E-01   1.00800           0
      1130 MEMB     10       PMPE     HY       HAL2     0.900000E-01   1.00800           0
      1131 MEMB     10       PMPE     O31      OSL     -0.490000       15.9994           0
      1132 MEMB     10       PMPE     C31      CL       0.900000       12.0110           0
      1133 MEMB     10       PMPE     O32      OBL     -0.630000       15.9994           0
      1134 MEMB     10       PMPE     C32      CTL2    -0.220000       12.0110           0
      1135 MEMB     10       PMPE     H2X      HAL2     0.900000E-01   1.00800           0
      1136 MEMB     10       PMPE     H2Y      HAL2     0.900000E-01   1.00800           0
      1137 MEMB     10       PMPE     C23      CTL2    -0.180000       12.0110           0
      1138 MEMB     10       PMPE     H3R      HAL2     0.900000E-01   1.00800           0
      1139 MEMB     10       PMPE     H3S      HAL2     0.900000E-01   1.00800           0
      1140 MEMB     10       PMPE     C24      CTL2    -0.180000       12.0110           0
      1141 MEMB     10       PMPE     H4R      HAL2     0.900000E-01   1.00800           0
      1142 MEMB     10       PMPE     H4S      HAL2     0.900000E-01   1.00800           0
      1143 MEMB     10       PMPE     C25      CTL2    -0.180000       12.0110           0
      1144 MEMB     10       PMPE     H5R      HAL2     0.900000E-01   1.00800           0
      1145 MEMB     10       PMPE     H5S      HAL2     0.900000E-01   1.00800           0
      1146 MEMB     10       PMPE     C26      CTL2    -0.180000       12.0110           0
      1147 MEMB     10       PMPE     H6R      HAL2     0.900000E-01   1.00800           0
      1148 MEMB     10       PMPE     H6S      HAL2     0.900000E-01   1.00800           0
      1149 MEMB     10       PMPE     C27      CTL2    -0.180000       12.0110           0
      1150 MEMB     10       PMPE     H7R      HAL2     0.900000E-01   1.00800           0
      1151 MEMB     10       PMPE     H7S      HAL2     0.900000E-01   1.00800           0
      1152 MEMB     10       PMPE     C28      CTL2    -0.180000       12.0110           0
      1153 MEMB     10       PMPE     H8R      HAL2     0.900000E-01   1.00800           0
      1154 MEMB     10       PMPE     H8S      HAL2     0.900000E-01   1.00800           0
      1155 MEMB     10       PMPE     C29      CG3RC1  -0.900000E-01   12.0110           0
      1156 MEMB     10       PMPE     H9R      HGA1     0.900000E-01   1.00800           0
      1157 MEMB     10       PMPE     C217     CG3C31  -0.180000       12.0110           0
      1158 MEMB     10       PMPE     H17R     HGA2     0.900000E-01   1.00800           0
      1159 MEMB     10       PMPE     H17S     HGA2     0.900000E-01   1.00800           0
      1160 MEMB     10       PMPE     C210     CG3RC1  -0.900000E-01   12.0110           0
      1161 MEMB     10       PMPE     H10R     HGA1     0.900000E-01   1.00800           0
      1162 MEMB     10       PMPE     C211     CTL2    -0.180000       12.0110           0
      1163 MEMB     10       PMPE     H11R     HAL2     0.900000E-01   1.00800           0
      1164 MEMB     10       PMPE     H11S     HAL2     0.900000E-01   1.00800           0
      1165 MEMB     10       PMPE     C212     CTL2    -0.180000       12.0110           0
      1166 MEMB     10       PMPE     H12R     HAL2     0.900000E-01   1.00800           0
      1167 MEMB     10       PMPE     H12S     HAL2     0.900000E-01   1.00800           0
      1168 MEMB     10       PMPE     C213     CTL2    -0.180000       12.0110           0
      1169 MEMB     10       PMPE     H13R     HAL2     0.900000E-01   1.00800           0
      1170 MEMB     10       PMPE     H13S     HAL2     0.900000E-01   1.00800           0
      1171 MEMB     10       PMPE     C214     CTL2    -0.180000       12.0110           0
      1172 MEMB     10       PMPE     H14R     HAL2     0.900000E-01   1.00800           0
      1173 MEMB     10       PMPE     H14S     HAL2     0.900000E-01   1.00800           0
      1174 MEMB     10       PMPE     C215     CTL2    -0.180000       12.0110           0
      1175 MEMB     10       PMPE     H15R     HAL2     0.900000E-01   1.00800           0
      1176 MEMB     10       PMPE     H15S     HAL2     0.900000E-01   1.00800           0
      1177 MEMB     10       PMPE     C216     CTL3    -0.270000       12.0110           0
      1178 MEMB     10       PMPE     H16R     HAL3     0.900000E-01   1.00800           0
      1179 MEMB     10       PMPE     H16S     HAL3     0.900000E-01   1.00800           0
      1180 MEMB     10       PMPE     H16T     HAL3     0.900000E-01   1.00800           0
      1181 MEMB     10       PMPE     C33      CTL2    -0.180000       12.0110           0
      1182 MEMB     10       PMPE     H3X      HAL2     0.900000E-01   1.00800           0
      1183 MEMB     10       PMPE     H3Y      HAL2     0.900000E-01   1.00800           0
      1184 MEMB     10       PMPE     C34      CTL2    -0.180000       12.0110           0
      1185 MEMB     10       PMPE     H4X      HAL2     0.900000E-01   1.00800           0
      1186 MEMB     10       PMPE     H4Y      HAL2     0.900000E-01   1.00800           0
      1187 MEMB     10       PMPE     C35      CTL2    -0.180000       12.0110           0
      1188 MEMB     10       PMPE     H5X      HAL2     0.900000E-01   1.00800           0
      1189 MEMB     10       PMPE     H5Y      HAL2     0.900000E-01   1.00800           0
      1190 MEMB     10       PMPE     C36      CTL2    -0.180000       12.0110           0
      1191 MEMB     10       PMPE     H6X      HAL2     0.900000E-01   1.00800           0
      1192 MEMB     10       PMPE     H6Y      HAL2     0.900000E-01   1.00800           0
      1193 MEMB     10       PMPE     C37      CTL2    -0.180000       12.0110           0
      1194 MEMB     10       PMPE     H7X      HAL2     0.900000E-01   1.00800           0
      1195 MEMB     10       PMPE     H7Y      HAL2     0.900000E-01   1.00800           0
      1196 MEMB     10       PMPE     C38      CTL2    -0.180000       12.0110           0
      1197 MEMB     10       PMPE     H8X      HAL2     0.900000E-01   1.00800           0
      1198 MEMB     10       PMPE     H8Y      HAL2     0.900000E-01   1.00800           0
      1199 MEMB     10       PMPE     C39      CTL2    -0.180000       12.0110           0
      1200 MEMB     10       PMPE     H9X      HAL2     0.900000E-01   1.00800           0
      1201 MEMB     10       PMPE     H9Y      HAL2     0.900000E-01   1.00800           0
      1202 MEMB     10       PMPE     C310     CTL2    -0.180000       12.0110           0
      1203 MEMB     10       PMPE     H10X     HAL2     0.900000E-01   1.00800           0
      1204 MEMB     10       PMPE     H10Y     HAL2     0.900000E-01   1.00800           0
      1205 MEMB     10       PMPE     C311     CTL2    -0.180000       12.0110           0
      1206 MEMB     10       PMPE     H11X     HAL2     0.900000E-01   1.00800           0
      1207 MEMB     10       PMPE     H11Y     HAL2     0.900000E-01   1.00800           0
      1208 MEMB     10       PMPE     C312     CTL2    -0.180000       12.0110           0
      1209 MEMB     10       PMPE     H12X     HAL2     0.900000E-01   1.00800           0
      1210 MEMB     10       PMPE     H12Y     HAL2     0.900000E-01   1.00800           0
      1211 MEMB     10       PMPE     C313     CTL2    -0.180000       12.0110           0
      1212 MEMB     10       PMPE     H13X     HAL2     0.900000E-01   1.00800           0
      1213 MEMB     10       PMPE     H13Y     HAL2     0.900000E-01   1.00800           0
      1214 MEMB     10       PMPE     C314     CTL2    -0.180000       12.0110           0
      1215 MEMB     10       PMPE     H14X     HAL2     0.900000E-01   1.00800           0
      1216 MEMB     10       PMPE     H14Y     HAL2     0.900000E-01   1.00800           0
      1217 MEMB     10       PMPE     C315     CTL2    -0.180000       12.0110           0
      1218 MEMB     10       PMPE     H15X     HAL2     0.900000E-01   1.00800           0
      1219 MEMB     10       PMPE     H15Y     HAL2     0.900000E-01   1.00800           0
      1220 MEMB     10       PMPE     C316     CTL3    -0.270000       12.0110           0
      1221 MEMB     10       PMPE     H16X     HAL3     0.900000E-01   1.00800           0
      1222 MEMB     10       PMPE     H16Y     HAL3     0.900000E-01   1.00800           0
      1223 MEMB     10       PMPE     H16Z     HAL3     0.900000E-01   1.00800           0
      1224 MEMB     11       POPE     N        NH3L    -0.300000       14.0070           0
      1225 MEMB     11       POPE     HN1      HCL      0.330000       1.00800           0
      1226 MEMB     11       POPE     HN2      HCL      0.330000       1.00800           0
      1227 MEMB     11       POPE     HN3      HCL      0.330000       1.00800           0
      1228 MEMB     11       POPE     C12      CTL2     0.130000       12.0110           0
      1229 MEMB     11       POPE     H12A     HAL2     0.900000E-01   1.00800           0
      1230 MEMB     11       POPE     H12B     HAL2     0.900000E-01   1.00800           0
      1231 MEMB     11       POPE     C11      CTL2    -0.800000E-01   12.0110           0
      1232 MEMB     11       POPE     H11A     HAL2     0.900000E-01   1.00800           0
      1233 MEMB     11       POPE     H11B     HAL2     0.900000E-01   1.00800           0
      1234 MEMB     11       POPE     P        PL        1.50000       30.9740           0
      1235 MEMB     11       POPE     O13      O2L     -0.780000       15.9994           0
      1236 MEMB     11       POPE     O14      O2L     -0.780000       15.9994           0
      1237 MEMB     11       POPE     O11      OSLP    -0.570000       15.9994           0
      1238 MEMB     11       POPE     O12      OSLP    -0.570000       15.9994           0
      1239 MEMB     11       POPE     C1       CTL2    -0.800000E-01   12.0110           0
      1240 MEMB     11       POPE     HA       HAL2     0.900000E-01   1.00800           0
      1241 MEMB     11       POPE     HB       HAL2     0.900000E-01   1.00800           0
      1242 MEMB     11       POPE     C2       CTL1     0.170000       12.0110           0
      1243 MEMB     11       POPE     HS       HAL1     0.900000E-01   1.00800           0
      1244 MEMB     11       POPE     O21      OSL     -0.490000       15.9994           0
      1245 MEMB     11       POPE     C21      CL       0.900000       12.0110           0
      1246 MEMB     11       POPE     O22      OBL     -0.630000       15.9994           0
      1247 MEMB     11       POPE     C22      CTL2    -0.220000       12.0110           0
      1248 MEMB     11       POPE     H2R      HAL2     0.900000E-01   1.00800           0
      1249 MEMB     11       POPE     H2S      HAL2     0.900000E-01   1.00800           0
      1250 MEMB     11       POPE     C3       CTL2     0.800000E-01   12.0110           0
      1251 MEMB     11       POPE     HX       HAL2     0.900000E-01   1.00800           0
      1252 MEMB     11       POPE     HY       HAL2     0.900000E-01   1.00800           0
      1253 MEMB     11       POPE     O31      OSL     -0.490000       15.9994           0
      1254 MEMB     11       POPE     C31      CL       0.900000       12.0110           0
      1255 MEMB     11       POPE     O32      OBL     -0.630000       15.9994           0
      1256 MEMB     11       POPE     C32      CTL2    -0.220000       12.0110           0
      1257 MEMB     11       POPE     H2X      HAL2     0.900000E-01   1.00800           0
      1258 MEMB     11       POPE     H2Y      HAL2     0.900000E-01   1.00800           0
      1259 MEMB     11       POPE     C23      CTL2    -0.180000       12.0110           0
      1260 MEMB     11       POPE     H3R      HAL2     0.900000E-01   1.00800           0
      1261 MEMB     11       POPE     H3S      HAL2     0.900000E-01   1.00800           0
      1262 MEMB     11       POPE     C24      CTL2    -0.180000       12.0110           0
      1263 MEMB     11       POPE     H4R      HAL2     0.900000E-01   1.00800           0
      1264 MEMB     11       POPE     H4S      HAL2     0.900000E-01   1.00800           0
      1265 MEMB     11       POPE     C25      CTL2    -0.180000       12.0110           0
      1266 MEMB     11       POPE     H5R      HAL2     0.900000E-01   1.00800           0
      1267 MEMB     11       POPE     H5S      HAL2     0.900000E-01   1.00800           0
      1268 MEMB     11       POPE     C26      CTL2    -0.180000       12.0110           0
      1269 MEMB     11       POPE     H6R      HAL2     0.900000E-01   1.00800           0
      1270 MEMB     11       POPE     H6S      HAL2     0.900000E-01   1.00800           0
      1271 MEMB     11       POPE     C27      CTL2    -0.180000       12.0110           0
      1272 MEMB     11       POPE     H7R      HAL2     0.900000E-01   1.00800           0
      1273 MEMB     11       POPE     H7S      HAL2     0.900000E-01   1.00800           0
      1274 MEMB     11       POPE     C28      CTL2    -0.180000       12.0110           0
      1275 MEMB     11       POPE     H8R      HAL2     0.900000E-01   1.00800           0
      1276 MEMB     11       POPE     H8S      HAL2     0.900000E-01   1.00800           0
      1277 MEMB     11       POPE     C29      CEL1    -0.150000       12.0110           0
      1278 MEMB     11       POPE     H91      HEL1     0.150000       1.00800           0
      1279 MEMB     11       POPE     C210     CEL1    -0.150000       12.0110           0
      1280 MEMB     11       POPE     H101     HEL1     0.150000       1.00800           0
      1281 MEMB     11       POPE     C211     CTL2    -0.180000       12.0110           0
      1282 MEMB     11       POPE     H11R     HAL2     0.900000E-01   1.00800           0
      1283 MEMB     11       POPE     H11S     HAL2     0.900000E-01   1.00800           0
      1284 MEMB     11       POPE     C212     CTL2    -0.180000       12.0110           0
      1285 MEMB     11       POPE     H12R     HAL2     0.900000E-01   1.00800           0
      1286 MEMB     11       POPE     H12S     HAL2     0.900000E-01   1.00800           0
      1287 MEMB     11       POPE     C213     CTL2    -0.180000       12.0110           0
      1288 MEMB     11       POPE     H13R     HAL2     0.900000E-01   1.00800           0
      1289 MEMB     11       POPE     H13S     HAL2     0.900000E-01   1.00800           0
      1290 MEMB     11       POPE     C214     CTL2    -0.180000       12.0110           0
      1291 MEMB     11       POPE     H14R     HAL2     0.900000E-01   1.00800           0
      1292 MEMB     11       POPE     H14S     HAL2     0.900000E-01   1.00800           0
      1293 MEMB     11       POPE     C215     CTL2    -0.180000       12.0110           0
      1294 MEMB     11       POPE     H15R     HAL2     0.900000E-01   1.00800           0
      1295 MEMB     11       POPE     H15S     HAL2     0.900000E-01   1.00800           0
      1296 MEMB     11       POPE     C216     CTL2    -0.180000       12.0110           0
      1297 MEMB     11       POPE     H16R     HAL2     0.900000E-01   1.00800           0
      1298 MEMB     11       POPE     H16S     HAL2     0.900000E-01   1.00800           0
      1299 MEMB     11       POPE     C217     CTL2    -0.180000       12.0110           0
      1300 MEMB     11       POPE     H17R     HAL2     0.900000E-01   1.00800           0
      1301 MEMB     11       POPE     H17S     HAL2     0.900000E-01   1.00800           0
      1302 MEMB     11       POPE     C218     CTL3    -0.270000       12.0110           0
      1303 MEMB     11       POPE     H18R     HAL3     0.900000E-01   1.00800           0
      1304 MEMB     11       POPE     H18S     HAL3     0.900000E-01   1.00800           0
      1305 MEMB     11       POPE     H18T     HAL3     0.900000E-01   1.00800           0
      1306 MEMB     11       POPE     C33      CTL2    -0.180000       12.0110           0
      1307 MEMB     11       POPE     H3X      HAL2     0.900000E-01   1.00800           0
      1308 MEMB     11       POPE     H3Y      HAL2     0.900000E-01   1.00800           0
      1309 MEMB     11       POPE     C34      CTL2    -0.180000       12.0110           0
      1310 MEMB     11       POPE     H4X      HAL2     0.900000E-01   1.00800           0
      1311 MEMB     11       POPE     H4Y      HAL2     0.900000E-01   1.00800           0
      1312 MEMB     11       POPE     C35      CTL2    -0.180000       12.0110           0
      1313 MEMB     11       POPE     H5X      HAL2     0.900000E-01   1.00800           0
      1314 MEMB     11       POPE     H5Y      HAL2     0.900000E-01   1.00800           0
      1315 MEMB     11       POPE     C36      CTL2    -0.180000       12.0110           0
      1316 MEMB     11       POPE     H6X      HAL2     0.900000E-01   1.00800           0
      1317 MEMB     11       POPE     H6Y      HAL2     0.900000E-01   1.00800           0
      1318 MEMB     11       POPE     C37      CTL2    -0.180000       12.0110           0
      1319 MEMB     11       POPE     H7X      HAL2     0.900000E-01   1.00800           0
      1320 MEMB     11       POPE     H7Y      HAL2     0.900000E-01   1.00800           0
      1321 MEMB     11       POPE     C38      CTL2    -0.180000       12.0110           0
      1322 MEMB     11       POPE     H8X      HAL2     0.900000E-01   1.00800           0
      1323 MEMB     11       POPE     H8Y      HAL2     0.900000E-01   1.00800           0
      1324 MEMB     11       POPE     C39      CTL2    -0.180000       12.0110           0
      1325 MEMB     11       POPE     H9X      HAL2     0.900000E-01   1.00800           0
      1326 MEMB     11       POPE     H9Y      HAL2     0.900000E-01   1.00800           0
      1327 MEMB     11       POPE     C310     CTL2    -0.180000       12.0110           0
      1328 MEMB     11       POPE     H10X     HAL2     0.900000E-01   1.00800           0
      1329 MEMB     11       POPE     H10Y     HAL2     0.900000E-01   1.00800           0
      1330 MEMB     11       POPE     C311     CTL2    -0.180000       12.0110           0
      1331 MEMB     11       POPE     H11X     HAL2     0.900000E-01   1.00800           0
      1332 MEMB     11       POPE     H11Y     HAL2     0.900000E-01   1.00800           0
      1333 MEMB     11       POPE     C312     CTL2    -0.180000       12.0110           0
      1334 MEMB     11       POPE     H12X     HAL2     0.900000E-01   1.00800           0
      1335 MEMB     11       POPE     H12Y     HAL2     0.900000E-01   1.00800           0
      1336 MEMB     11       POPE     C313     CTL2    -0.180000       12.0110           0
      1337 MEMB     11       POPE     H13X     HAL2     0.900000E-01   1.00800           0
      1338 MEMB     11       POPE     H13Y     HAL2     0.900000E-01   1.00800           0
      1339 MEMB     11       POPE     C314     CTL2    -0.180000       12.0110           0
      1340 MEMB     11       POPE     H14X     HAL2     0.900000E-01   1.00800           0
      1341 MEMB     11       POPE     H14Y     HAL2     0.900000E-01   1.00800           0
      1342 MEMB     11       POPE     C315     CTL2    -0.180000       12.0110           0
      1343 MEMB     11       POPE     H15X     HAL2     0.900000E-01   1.00800           0
      1344 MEMB     11       POPE     H15Y     HAL2     0.900000E-01   1.00800           0
      1345 MEMB     11       POPE     C316     CTL3    -0.270000       12.0110           0
      1346 MEMB     11       POPE     H16X     HAL3     0.900000E-01   1.00800           0
      1347 MEMB     11       POPE     H16Y     HAL3     0.900000E-01   1.00800           0
      1348 MEMB     11       POPE     H16Z     HAL3     0.900000E-01   1.00800           0
      1349 MEMB     12       PMPE     N        NH3L    -0.300000       14.0070           0
      1350 MEMB     12       PMPE     HN1      HCL      0.330000       1.00800           0
      1351 MEMB     12       PMPE     HN2      HCL      0.330000       1.00800           0
      1352 MEMB     12       PMPE     HN3      HCL      0.330000       1.00800           0
      1353 MEMB     12       PMPE     C12      CTL2     0.130000       12.0110           0
      1354 MEMB     12       PMPE     H12A     HAL2     0.900000E-01   1.00800           0
      1355 MEMB     12       PMPE     H12B     HAL2     0.900000E-01   1.00800           0
      1356 MEMB     12       PMPE     C11      CTL2    -0.800000E-01   12.0110           0
      1357 MEMB     12       PMPE     H11A     HAL2     0.900000E-01   1.00800           0
      1358 MEMB     12       PMPE     H11B     HAL2     0.900000E-01   1.00800           0
      1359 MEMB     12       PMPE     P        PL        1.50000       30.9740           0
      1360 MEMB     12       PMPE     O13      O2L     -0.780000       15.9994           0
      1361 MEMB     12       PMPE     O14      O2L     -0.780000       15.9994           0
      1362 MEMB     12       PMPE     O11      OSLP    -0.570000       15.9994           0
      1363 MEMB     12       PMPE     O12      OSLP    -0.570000       15.9994           0
      1364 MEMB     12       PMPE     C1       CTL2    -0.800000E-01   12.0110           0
      1365 MEMB     12       PMPE     HA       HAL2     0.900000E-01   1.00800           0
      1366 MEMB     12       PMPE     HB       HAL2     0.900000E-01   1.00800           0
      1367 MEMB     12       PMPE     C2       CTL1     0.170000       12.0110           0
      1368 MEMB     12       PMPE     HS       HAL1     0.900000E-01   1.00800           0
      1369 MEMB     12       PMPE     O21      OSL     -0.490000       15.9994           0
      1370 MEMB     12       PMPE     C21      CL       0.900000       12.0110           0
      1371 MEMB     12       PMPE     O22      OBL     -0.630000       15.9994           0
      1372 MEMB     12       PMPE     C22      CTL2    -0.220000       12.0110           0
      1373 MEMB     12       PMPE     H2R      HAL2     0.900000E-01   1.00800           0
      1374 MEMB     12       PMPE     H2S      HAL2     0.900000E-01   1.00800           0
      1375 MEMB     12       PMPE     C3       CTL2     0.800000E-01   12.0110           0
      1376 MEMB     12       PMPE     HX       HAL2     0.900000E-01   1.00800           0
      1377 MEMB     12       PMPE     HY       HAL2     0.900000E-01   1.00800           0
      1378 MEMB     12       PMPE     O31      OSL     -0.490000       15.9994           0
      1379 MEMB     12       PMPE     C31      CL       0.900000       12.0110           0
      1380 MEMB     12       PMPE     O32      OBL     -0.630000       15.9994           0
      1381 MEMB     12       PMPE     C32      CTL2    -0.220000       12.0110           0
      1382 MEMB     12       PMPE     H2X      HAL2     0.900000E-01   1.00800           0
      1383 MEMB     12       PMPE     H2Y      HAL2     0.900000E-01   1.00800           0
      1384 MEMB     12       PMPE     C23      CTL2    -0.180000       12.0110           0
      1385 MEMB     12       PMPE     H3R      HAL2     0.900000E-01   1.00800           0
      1386 MEMB     12       PMPE     H3S      HAL2     0.900000E-01   1.00800           0
      1387 MEMB     12       PMPE     C24      CTL2    -0.180000       12.0110           0
      1388 MEMB     12       PMPE     H4R      HAL2     0.900000E-01   1.00800           0
      1389 MEMB     12       PMPE     H4S      HAL2     0.900000E-01   1.00800           0
      1390 MEMB     12       PMPE     C25      CTL2    -0.180000       12.0110           0
      1391 MEMB     12       PMPE     H5R      HAL2     0.900000E-01   1.00800           0
      1392 MEMB     12       PMPE     H5S      HAL2     0.900000E-01   1.00800           0
      1393 MEMB     12       PMPE     C26      CTL2    -0.180000       12.0110           0
      1394 MEMB     12       PMPE     H6R      HAL2     0.900000E-01   1.00800           0
      1395 MEMB     12       PMPE     H6S      HAL2     0.900000E-01   1.00800           0
      1396 MEMB     12       PMPE     C27      CTL2    -0.180000       12.0110           0
      1397 MEMB     12       PMPE     H7R      HAL2     0.900000E-01   1.00800           0
      1398 MEMB     12       PMPE     H7S      HAL2     0.900000E-01   1.00800           0
      1399 MEMB     12       PMPE     C28      CTL2    -0.180000       12.0110           0
      1400 MEMB     12       PMPE     H8R      HAL2     0.900000E-01   1.00800           0
      1401 MEMB     12       PMPE     H8S      HAL2     0.900000E-01   1.00800           0
      1402 MEMB     12       PMPE     C29      CG3RC1  -0.900000E-01   12.0110           0
      1403 MEMB     12       PMPE     H9R      HGA1     0.900000E-01   1.00800           0
      1404 MEMB     12       PMPE     C217     CG3C31  -0.180000       12.0110           0
      1405 MEMB     12       PMPE     H17R     HGA2     0.900000E-01   1.00800           0
      1406 MEMB     12       PMPE     H17S     HGA2     0.900000E-01   1.00800           0
      1407 MEMB     12       PMPE     C210     CG3RC1  -0.900000E-01   12.0110           0
      1408 MEMB     12       PMPE     H10R     HGA1     0.900000E-01   1.00800           0
      1409 MEMB     12       PMPE     C211     CTL2    -0.180000       12.0110           0
      1410 MEMB     12       PMPE     H11R     HAL2     0.900000E-01   1.00800           0
      1411 MEMB     12       PMPE     H11S     HAL2     0.900000E-01   1.00800           0
      1412 MEMB     12       PMPE     C212     CTL2    -0.180000       12.0110           0
      1413 MEMB     12       PMPE     H12R     HAL2     0.900000E-01   1.00800           0
      1414 MEMB     12       PMPE     H12S     HAL2     0.900000E-01   1.00800           0
      1415 MEMB     12       PMPE     C213     CTL2    -0.180000       12.0110           0
      1416 MEMB     12       PMPE     H13R     HAL2     0.900000E-01   1.00800           0
      1417 MEMB     12       PMPE     H13S     HAL2     0.900000E-01   1.00800           0
      1418 MEMB     12       PMPE     C214     CTL2    -0.180000       12.0110           0
      1419 MEMB     12       PMPE     H14R     HAL2     0.900000E-01   1.00800           0
      1420 MEMB     12       PMPE     H14S     HAL2     0.900000E-01   1.00800           0
      1421 MEMB     12       PMPE     C215     CTL2    -0.180000       12.0110           0
      1422 MEMB     12       PMPE     H15R     HAL2     0.900000E-01   1.00800           0
      1423 MEMB     12       PMPE     H15S     HAL2     0.900000E-01   1.00800           0
      1424 MEMB     12       PMPE     C216     CTL3    -0.270000       12.0110           0
      1425 MEMB     12       PMPE     H16R     HAL3     0.900000E-01   1.00800           0
      1426 MEMB     12       PMPE     H16S     HAL3     0.900000E-01   1.00800           0
      1427 MEMB     12       PMPE     H16T     HAL3     0.900000E-01   1.00800           0
      1428 MEMB     12       PMPE     C33      CTL2    -0.180000       12.0110           0
      1429 MEMB     12       PMPE     H3X      HAL2     0.900000E-01   1.00800           0
      1430 MEMB     12       PMPE     H3Y      HAL2     0.900000E-01   1.00800           0
      1431 MEMB     12       PMPE     C34      CTL2    -0.180000       12.0110           0
      1432 MEMB     12       PMPE     H4X      HAL2     0.900000E-01   1.00800           0
      1433 MEMB     12       PMPE     H4Y      HAL2     0.900000E-01   1.00800           0
      1434 MEMB     12       PMPE     C35      CTL2    -0.180000       12.0110           0
      1435 MEMB     12       PMPE     H5X      HAL2     0.900000E-01   1.00800           0
      1436 MEMB     12       PMPE     H5Y      HAL2     0.900000E-01   1.00800           0
      1437 MEMB     12       PMPE     C36      CTL2    -0.180000       12.0110           0
      1438 MEMB     12       PMPE     H6X      HAL2     0.900000E-01   1.00800           0
      1439 MEMB     12       PMPE     H6Y      HAL2     0.900000E-01   1.00800           0
      1440 MEMB     12       PMPE     C37      CTL2    -0.180000       12.0110           0
      1441 MEMB     12       PMPE     H7X      HAL2     0.900000E-01   1.00800           0
      1442 MEMB     12       PMPE     H7Y      HAL2     0.900000E-01   1.00800           0
      1443 MEMB     12       PMPE     C38      CTL2    -0.180000       12.0110           0
      1444 MEMB     12       PMPE     H8X      HAL2     0.900000E-01   1.00800           0
      1445 MEMB     12       PMPE     H8Y      HAL2     0.900000E-01   1.00800           0
      1446 MEMB     12       PMPE     C39      CTL2    -0.180000       12.0110           0
      1447 MEMB     12       PMPE     H9X      HAL2     0.900000E-01   1.00800           0
      1448 MEMB     12       PMPE     H9Y      HAL2     0.900000E-01   1.00800           0
      1449 MEMB     12       PMPE     C310     CTL2    -0.180000       12.0110           0
      1450 MEMB     12       PMPE     H10X     HAL2     0.900000E-01   1.00800           0
      1451 MEMB     12       PMPE     H10Y     HAL2     0.900000E-01   1.00800           0
      1452 MEMB     12       PMPE     C311     CTL2    -0.180000       12.0110           0
      1453 MEMB     12       PMPE     H11X     HAL2     0.900000E-01   1.00800           0
      1454 MEMB     12       PMPE     H11Y     HAL2     0.900000E-01   1.00800           0
      1455 MEMB     12       PMPE     C312     CTL2    -0.180000       12.0110           0
      1456 MEMB     12       PMPE     H12X     HAL2     0.900000E-01   1.00800           0
      1457 MEMB     12       PMPE     H12Y     HAL2     0.900000E-01   1.00800           0
      1458 MEMB     12       PMPE     C313     CTL2    -0.180000       12.0110           0
      1459 MEMB     12       PMPE     H13X     HAL2     0.900000E-01   1.00800           0
      1460 MEMB     12       PMPE     H13Y     HAL2     0.900000E-01   1.00800           0
      1461 MEMB     12       PMPE     C314     CTL2    -0.180000       12.0110           0
      1462 MEMB     12       PMPE     H14X     HAL2     0.900000E-01   1.00800           0
      1463 MEMB     12       PMPE     H14Y     HAL2     0.900000E-01   1.00800           0
      1464 MEMB     12       PMPE     C315     CTL2    -0.180000       12.0110           0
      1465 MEMB     12       PMPE     H15X     HAL2     0.900000E-01   1.00800           0
      1466 MEMB     12       PMPE     H15Y     HAL2     0.900000E-01   1.00800           0
      1467 MEMB     12       PMPE     C316     CTL3    -0.270000       12.0110           0
      1468 MEMB     12       PMPE     H16X     HAL3     0.900000E-01   1.00800           0
      1469 MEMB     12       PMPE     H16Y     HAL3     0.900000E-01   1.00800           0
      1470 MEMB     12       PMPE     H16Z     HAL3     0.900000E-01   1.00800           0
      1471 MEMB     13       PMPG     C13      CTL2     0.500000E-01   12.0110           0
      1472 MEMB     13       PMPG     H13A     HAL2     0.900000E-01   1.00800           0
      1473 MEMB     13       PMPG     H13B     HAL2     0.900000E-01   1.00800           0
      1474 MEMB     13       PMPG     OC3      OHL     -0.660000       15.9994           0
      1475 MEMB     13       PMPG     HO3      HOL      0.430000       1.00800           0
      1476 MEMB     13       PMPG     C12      CTL1     0.140000       12.0110           0
      1477 MEMB     13       PMPG     H12A     HAL1     0.900000E-01   1.00800           0
      1478 MEMB     13       PMPG     OC2      OHL     -0.660000       15.9994           0
      1479 MEMB     13       PMPG     HO2      HOL      0.430000       1.00800           0
      1480 MEMB     13       PMPG     C11      CTL2    -0.800000E-01   12.0110           0
      1481 MEMB     13       PMPG     H11A     HAL2     0.900000E-01   1.00800           0
      1482 MEMB     13       PMPG     H11B     HAL2     0.900000E-01   1.00800           0
      1483 MEMB     13       PMPG     P        PL        1.50000       30.9740           0
      1484 MEMB     13       PMPG     O13      O2L     -0.780000       15.9994           0
      1485 MEMB     13       PMPG     O14      O2L     -0.780000       15.9994           0
      1486 MEMB     13       PMPG     O11      OSLP    -0.570000       15.9994           0
      1487 MEMB     13       PMPG     O12      OSLP    -0.570000       15.9994           0
      1488 MEMB     13       PMPG     C1       CTL2    -0.800000E-01   12.0110           0
      1489 MEMB     13       PMPG     HA       HAL2     0.900000E-01   1.00800           0
      1490 MEMB     13       PMPG     HB       HAL2     0.900000E-01   1.00800           0
      1491 MEMB     13       PMPG     C2       CTL1     0.170000       12.0110           0
      1492 MEMB     13       PMPG     HS       HAL1     0.900000E-01   1.00800           0
      1493 MEMB     13       PMPG     O21      OSL     -0.490000       15.9994           0
      1494 MEMB     13       PMPG     C21      CL       0.900000       12.0110           0
      1495 MEMB     13       PMPG     O22      OBL     -0.630000       15.9994           0
      1496 MEMB     13       PMPG     C22      CTL2    -0.220000       12.0110           0
      1497 MEMB     13       PMPG     H2R      HAL2     0.900000E-01   1.00800           0
      1498 MEMB     13       PMPG     H2S      HAL2     0.900000E-01   1.00800           0
      1499 MEMB     13       PMPG     C3       CTL2     0.800000E-01   12.0110           0
      1500 MEMB     13       PMPG     HX       HAL2     0.900000E-01   1.00800           0
      1501 MEMB     13       PMPG     HY       HAL2     0.900000E-01   1.00800           0
      1502 MEMB     13       PMPG     O31      OSL     -0.490000       15.9994           0
      1503 MEMB     13       PMPG     C31      CL       0.900000       12.0110           0
      1504 MEMB     13       PMPG     O32      OBL     -0.630000       15.9994           0
      1505 MEMB     13       PMPG     C32      CTL2    -0.220000       12.0110           0
      1506 MEMB     13       PMPG     H2X      HAL2     0.900000E-01   1.00800           0
      1507 MEMB     13       PMPG     H2Y      HAL2     0.900000E-01   1.00800           0
      1508 MEMB     13       PMPG     C23      CTL2    -0.180000       12.0110           0
      1509 MEMB     13       PMPG     H3R      HAL2     0.900000E-01   1.00800           0
      1510 MEMB     13       PMPG     H3S      HAL2     0.900000E-01   1.00800           0
      1511 MEMB     13       PMPG     C24      CTL2    -0.180000       12.0110           0
      1512 MEMB     13       PMPG     H4R      HAL2     0.900000E-01   1.00800           0
      1513 MEMB     13       PMPG     H4S      HAL2     0.900000E-01   1.00800           0
      1514 MEMB     13       PMPG     C25      CTL2    -0.180000       12.0110           0
      1515 MEMB     13       PMPG     H5R      HAL2     0.900000E-01   1.00800           0
      1516 MEMB     13       PMPG     H5S      HAL2     0.900000E-01   1.00800           0
      1517 MEMB     13       PMPG     C26      CTL2    -0.180000       12.0110           0
      1518 MEMB     13       PMPG     H6R      HAL2     0.900000E-01   1.00800           0
      1519 MEMB     13       PMPG     H6S      HAL2     0.900000E-01   1.00800           0
      1520 MEMB     13       PMPG     C27      CTL2    -0.180000       12.0110           0
      1521 MEMB     13       PMPG     H7R      HAL2     0.900000E-01   1.00800           0
      1522 MEMB     13       PMPG     H7S      HAL2     0.900000E-01   1.00800           0
      1523 MEMB     13       PMPG     C28      CTL2    -0.180000       12.0110           0
      1524 MEMB     13       PMPG     H8R      HAL2     0.900000E-01   1.00800           0
      1525 MEMB     13       PMPG     H8S      HAL2     0.900000E-01   1.00800           0
      1526 MEMB     13       PMPG     C29      CG3RC1  -0.900000E-01   12.0110           0
      1527 MEMB     13       PMPG     H9R      HGA1     0.900000E-01   1.00800           0
      1528 MEMB     13       PMPG     C217     CG3C31  -0.180000       12.0110           0
      1529 MEMB     13       PMPG     H17R     HGA2     0.900000E-01   1.00800           0
      1530 MEMB     13       PMPG     H17S     HGA2     0.900000E-01   1.00800           0
      1531 MEMB     13       PMPG     C210     CG3RC1  -0.900000E-01   12.0110           0
      1532 MEMB     13       PMPG     H10R     HGA1     0.900000E-01   1.00800           0
      1533 MEMB     13       PMPG     C211     CTL2    -0.180000       12.0110           0
      1534 MEMB     13       PMPG     H11R     HAL2     0.900000E-01   1.00800           0
      1535 MEMB     13       PMPG     H11S     HAL2     0.900000E-01   1.00800           0
      1536 MEMB     13       PMPG     C212     CTL2    -0.180000       12.0110           0
      1537 MEMB     13       PMPG     H12R     HAL2     0.900000E-01   1.00800           0
      1538 MEMB     13       PMPG     H12S     HAL2     0.900000E-01   1.00800           0
      1539 MEMB     13       PMPG     C213     CTL2    -0.180000       12.0110           0
      1540 MEMB     13       PMPG     H13R     HAL2     0.900000E-01   1.00800           0
      1541 MEMB     13       PMPG     H13S     HAL2     0.900000E-01   1.00800           0
      1542 MEMB     13       PMPG     C214     CTL2    -0.180000       12.0110           0
      1543 MEMB     13       PMPG     H14R     HAL2     0.900000E-01   1.00800           0
      1544 MEMB     13       PMPG     H14S     HAL2     0.900000E-01   1.00800           0
      1545 MEMB     13       PMPG     C215     CTL2    -0.180000       12.0110           0
      1546 MEMB     13       PMPG     H15R     HAL2     0.900000E-01   1.00800           0
      1547 MEMB     13       PMPG     H15S     HAL2     0.900000E-01   1.00800           0
      1548 MEMB     13       PMPG     C216     CTL3    -0.270000       12.0110           0
      1549 MEMB     13       PMPG     H16R     HAL3     0.900000E-01   1.00800           0
      1550 MEMB     13       PMPG     H16S     HAL3     0.900000E-01   1.00800           0
      1551 MEMB     13       PMPG     H16T     HAL3     0.900000E-01   1.00800           0
      1552 MEMB     13       PMPG     C33      CTL2    -0.180000       12.0110           0
      1553 MEMB     13       PMPG     H3X      HAL2     0.900000E-01   1.00800           0
      1554 MEMB     13       PMPG     H3Y      HAL2     0.900000E-01   1.00800           0
      1555 MEMB     13       PMPG     C34      CTL2    -0.180000       12.0110           0
      1556 MEMB     13       PMPG     H4X      HAL2     0.900000E-01   1.00800           0
      1557 MEMB     13       PMPG     H4Y      HAL2     0.900000E-01   1.00800           0
      1558 MEMB     13       PMPG     C35      CTL2    -0.180000       12.0110           0
      1559 MEMB     13       PMPG     H5X      HAL2     0.900000E-01   1.00800           0
      1560 MEMB     13       PMPG     H5Y      HAL2     0.900000E-01   1.00800           0
      1561 MEMB     13       PMPG     C36      CTL2    -0.180000       12.0110           0
      1562 MEMB     13       PMPG     H6X      HAL2     0.900000E-01   1.00800           0
      1563 MEMB     13       PMPG     H6Y      HAL2     0.900000E-01   1.00800           0
      1564 MEMB     13       PMPG     C37      CTL2    -0.180000       12.0110           0
      1565 MEMB     13       PMPG     H7X      HAL2     0.900000E-01   1.00800           0
      1566 MEMB     13       PMPG     H7Y      HAL2     0.900000E-01   1.00800           0
      1567 MEMB     13       PMPG     C38      CTL2    -0.180000       12.0110           0
      1568 MEMB     13       PMPG     H8X      HAL2     0.900000E-01   1.00800           0
      1569 MEMB     13       PMPG     H8Y      HAL2     0.900000E-01   1.00800           0
      1570 MEMB     13       PMPG     C39      CTL2    -0.180000       12.0110           0
      1571 MEMB     13       PMPG     H9X      HAL2     0.900000E-01   1.00800           0
      1572 MEMB     13       PMPG     H9Y      HAL2     0.900000E-01   1.00800           0
      1573 MEMB     13       PMPG     C310     CTL2    -0.180000       12.0110           0
      1574 MEMB     13       PMPG     H10X     HAL2     0.900000E-01   1.00800           0
      1575 MEMB     13       PMPG     H10Y     HAL2     0.900000E-01   1.00800           0
      1576 MEMB     13       PMPG     C311     CTL2    -0.180000       12.0110           0
      1577 MEMB     13       PMPG     H11X     HAL2     0.900000E-01   1.00800           0
      1578 MEMB     13       PMPG     H11Y     HAL2     0.900000E-01   1.00800           0
      1579 MEMB     13       PMPG     C312     CTL2    -0.180000       12.0110           0
      1580 MEMB     13       PMPG     H12X     HAL2     0.900000E-01   1.00800           0
      1581 MEMB     13       PMPG     H12Y     HAL2     0.900000E-01   1.00800           0
      1582 MEMB     13       PMPG     C313     CTL2    -0.180000       12.0110           0
      1583 MEMB     13       PMPG     H13X     HAL2     0.900000E-01   1.00800           0
      1584 MEMB     13       PMPG     H13Y     HAL2     0.900000E-01   1.00800           0
      1585 MEMB     13       PMPG     C314     CTL2    -0.180000       12.0110           0
      1586 MEMB     13       PMPG     H14X     HAL2     0.900000E-01   1.00800           0
      1587 MEMB     13       PMPG     H14Y     HAL2     0.900000E-01   1.00800           0
      1588 MEMB     13       PMPG     C315     CTL2    -0.180000       12.0110           0
      1589 MEMB     13       PMPG     H15X     HAL2     0.900000E-01   1.00800           0
      1590 MEMB     13       PMPG     H15Y     HAL2     0.900000E-01   1.00800           0
      1591 MEMB     13       PMPG     C316     CTL3    -0.270000       12.0110           0
      1592 MEMB     13       PMPG     H16X     HAL3     0.900000E-01   1.00800           0
      1593 MEMB     13       PMPG     H16Y     HAL3     0.900000E-01   1.00800           0
      1594 MEMB     13       PMPG     H16Z     HAL3     0.900000E-01   1.00800           0
      1595 MEMB     14       PMPE     N        NH3L    -0.300000       14.0070           0
      1596 MEMB     14       PMPE     HN1      HCL      0.330000       1.00800           0
      1597 MEMB     14       PMPE     HN2      HCL      0.330000       1.00800           0
      1598 MEMB     14       PMPE     HN3      HCL      0.330000       1.00800           0
      1599 MEMB     14       PMPE     C12      CTL2     0.130000       12.0110           0
      1600 MEMB     14       PMPE     H12A     HAL2     0.900000E-01   1.00800           0
      1601 MEMB     14       PMPE     H12B     HAL2     0.900000E-01   1.00800           0
      1602 MEMB     14       PMPE     C11      CTL2    -0.800000E-01   12.0110           0
      1603 MEMB     14       PMPE     H11A     HAL2     0.900000E-01   1.00800           0
      1604 MEMB     14       PMPE     H11B     HAL2     0.900000E-01   1.00800           0
      1605 MEMB     14       PMPE     P        PL        1.50000       30.9740           0
      1606 MEMB     14       PMPE     O13      O2L     -0.780000       15.9994           0
      1607 MEMB     14       PMPE     O14      O2L     -0.780000       15.9994           0
      1608 MEMB     14       PMPE     O11      OSLP    -0.570000       15.9994           0
      1609 MEMB     14       PMPE     O12      OSLP    -0.570000       15.9994           0
      1610 MEMB     14       PMPE     C1       CTL2    -0.800000E-01   12.0110           0
      1611 MEMB     14       PMPE     HA       HAL2     0.900000E-01   1.00800           0
      1612 MEMB     14       PMPE     HB       HAL2     0.900000E-01   1.00800           0
      1613 MEMB     14       PMPE     C2       CTL1     0.170000       12.0110           0
      1614 MEMB     14       PMPE     HS       HAL1     0.900000E-01   1.00800           0
      1615 MEMB     14       PMPE     O21      OSL     -0.490000       15.9994           0
      1616 MEMB     14       PMPE     C21      CL       0.900000       12.0110           0
      1617 MEMB     14       PMPE     O22      OBL     -0.630000       15.9994           0
      1618 MEMB     14       PMPE     C22      CTL2    -0.220000       12.0110           0
      1619 MEMB     14       PMPE     H2R      HAL2     0.900000E-01   1.00800           0
      1620 MEMB     14       PMPE     H2S      HAL2     0.900000E-01   1.00800           0
      1621 MEMB     14       PMPE     C3       CTL2     0.800000E-01   12.0110           0
      1622 MEMB     14       PMPE     HX       HAL2     0.900000E-01   1.00800           0
      1623 MEMB     14       PMPE     HY       HAL2     0.900000E-01   1.00800           0
      1624 MEMB     14       PMPE     O31      OSL     -0.490000       15.9994           0
      1625 MEMB     14       PMPE     C31      CL       0.900000       12.0110           0
      1626 MEMB     14       PMPE     O32      OBL     -0.630000       15.9994           0
      1627 MEMB     14       PMPE     C32      CTL2    -0.220000       12.0110           0
      1628 MEMB     14       PMPE     H2X      HAL2     0.900000E-01   1.00800           0
      1629 MEMB     14       PMPE     H2Y      HAL2     0.900000E-01   1.00800           0
      1630 MEMB     14       PMPE     C23      CTL2    -0.180000       12.0110           0
      1631 MEMB     14       PMPE     H3R      HAL2     0.900000E-01   1.00800           0
      1632 MEMB     14       PMPE     H3S      HAL2     0.900000E-01   1.00800           0
      1633 MEMB     14       PMPE     C24      CTL2    -0.180000       12.0110           0
      1634 MEMB     14       PMPE     H4R      HAL2     0.900000E-01   1.00800           0
      1635 MEMB     14       PMPE     H4S      HAL2     0.900000E-01   1.00800           0
      1636 MEMB     14       PMPE     C25      CTL2    -0.180000       12.0110           0
      1637 MEMB     14       PMPE     H5R      HAL2     0.900000E-01   1.00800           0
      1638 MEMB     14       PMPE     H5S      HAL2     0.900000E-01   1.00800           0
      1639 MEMB     14       PMPE     C26      CTL2    -0.180000       12.0110           0
      1640 MEMB     14       PMPE     H6R      HAL2     0.900000E-01   1.00800           0
      1641 MEMB     14       PMPE     H6S      HAL2     0.900000E-01   1.00800           0
      1642 MEMB     14       PMPE     C27      CTL2    -0.180000       12.0110           0
      1643 MEMB     14       PMPE     H7R      HAL2     0.900000E-01   1.00800           0
      1644 MEMB     14       PMPE     H7S      HAL2     0.900000E-01   1.00800           0
      1645 MEMB     14       PMPE     C28      CTL2    -0.180000       12.0110           0
      1646 MEMB     14       PMPE     H8R      HAL2     0.900000E-01   1.00800           0
      1647 MEMB     14       PMPE     H8S      HAL2     0.900000E-01   1.00800           0
      1648 MEMB     14       PMPE     C29      CG3RC1  -0.900000E-01   12.0110           0
      1649 MEMB     14       PMPE     H9R      HGA1     0.900000E-01   1.00800           0
      1650 MEMB     14       PMPE     C217     CG3C31  -0.180000       12.0110           0
      1651 MEMB     14       PMPE     H17R     HGA2     0.900000E-01   1.00800           0
      1652 MEMB     14       PMPE     H17S     HGA2     0.900000E-01   1.00800           0
      1653 MEMB     14       PMPE     C210     CG3RC1  -0.900000E-01   12.0110           0
      1654 MEMB     14       PMPE     H10R     HGA1     0.900000E-01   1.00800           0
      1655 MEMB     14       PMPE     C211     CTL2    -0.180000       12.0110           0
      1656 MEMB     14       PMPE     H11R     HAL2     0.900000E-01   1.00800           0
      1657 MEMB     14       PMPE     H11S     HAL2     0.900000E-01   1.00800           0
      1658 MEMB     14       PMPE     C212     CTL2    -0.180000       12.0110           0
      1659 MEMB     14       PMPE     H12R     HAL2     0.900000E-01   1.00800           0
      1660 MEMB     14       PMPE     H12S     HAL2     0.900000E-01   1.00800           0
      1661 MEMB     14       PMPE     C213     CTL2    -0.180000       12.0110           0
      1662 MEMB     14       PMPE     H13R     HAL2     0.900000E-01   1.00800           0
      1663 MEMB     14       PMPE     H13S     HAL2     0.900000E-01   1.00800           0
      1664 MEMB     14       PMPE     C214     CTL2    -0.180000       12.0110           0
      1665 MEMB     14       PMPE     H14R     HAL2     0.900000E-01   1.00800           0
      1666 MEMB     14       PMPE     H14S     HAL2     0.900000E-01   1.00800           0
      1667 MEMB     14       PMPE     C215     CTL2    -0.180000       12.0110           0
      1668 MEMB     14       PMPE     H15R     HAL2     0.900000E-01   1.00800           0
      1669 MEMB     14       PMPE     H15S     HAL2     0.900000E-01   1.00800           0
      1670 MEMB     14       PMPE     C216     CTL3    -0.270000       12.0110           0
      1671 MEMB     14       PMPE     H16R     HAL3     0.900000E-01   1.00800           0
      1672 MEMB     14       PMPE     H16S     HAL3     0.900000E-01   1.00800           0
      1673 MEMB     14       PMPE     H16T     HAL3     0.900000E-01   1.00800           0
      1674 MEMB     14       PMPE     C33      CTL2    -0.180000       12.0110           0
      1675 MEMB     14       PMPE     H3X      HAL2     0.900000E-01   1.00800           0
      1676 MEMB     14       PMPE     H3Y      HAL2     0.900000E-01   1.00800           0
      1677 MEMB     14       PMPE     C34      CTL2    -0.180000       12.0110           0
      1678 MEMB     14       PMPE     H4X      HAL2     0.900000E-01   1.00800           0
      1679 MEMB     14       PMPE     H4Y      HAL2     0.900000E-01   1.00800           0
      1680 MEMB     14       PMPE     C35      CTL2    -0.180000       12.0110           0
      1681 MEMB     14       PMPE     H5X      HAL2     0.900000E-01   1.00800           0
      1682 MEMB     14       PMPE     H5Y      HAL2     0.900000E-01   1.00800           0
      1683 MEMB     14       PMPE     C36      CTL2    -0.180000       12.0110           0
      1684 MEMB     14       PMPE     H6X      HAL2     0.900000E-01   1.00800           0
      1685 MEMB     14       PMPE     H6Y      HAL2     0.900000E-01   1.00800           0
      1686 MEMB     14       PMPE     C37      CTL2    -0.180000       12.0110           0
      1687 MEMB     14       PMPE     H7X      HAL2     0.900000E-01   1.00800           0
      1688 MEMB     14       PMPE     H7Y      HAL2     0.900000E-01   1.00800           0
      1689 MEMB     14       PMPE     C38      CTL2    -0.180000       12.0110           0
      1690 MEMB     14       PMPE     H8X      HAL2     0.900000E-01   1.00800           0
      1691 MEMB     14       PMPE     H8Y      HAL2     0.900000E-01   1.00800           0
      1692 MEMB     14       PMPE     C39      CTL2    -0.180000       12.0110           0
      1693 MEMB     14       PMPE     H9X      HAL2     0.900000E-01   1.00800           0
      1694 MEMB     14       PMPE     H9Y      HAL2     0.900000E-01   1.00800           0
      1695 MEMB     14       PMPE     C310     CTL2    -0.180000       12.0110           0
      1696 MEMB     14       PMPE     H10X     HAL2     0.900000E-01   1.00800           0
      1697 MEMB     14       PMPE     H10Y     HAL2     0.900000E-01   1.00800           0
      1698 MEMB     14       PMPE     C311     CTL2    -0.180000       12.0110           0
      1699 MEMB     14       PMPE     H11X     HAL2     0.900000E-01   1.00800           0
      1700 MEMB     14       PMPE     H11Y     HAL2     0.900000E-01   1.00800           0
      1701 MEMB     14       PMPE     C312     CTL2    -0.180000       12.0110           0
      1702 MEMB     14       PMPE     H12X     HAL2     0.900000E-01   1.00800           0
      1703 MEMB     14       PMPE     H12Y     HAL2     0.900000E-01   1.00800           0
      1704 MEMB     14       PMPE     C313     CTL2    -0.180000       12.0110           0
      1705 MEMB     14       PMPE     H13X     HAL2     0.900000E-01   1.00800           0
      1706 MEMB     14       PMPE     H13Y     HAL2     0.900000E-01   1.00800           0
      1707 MEMB     14       PMPE     C314     CTL2    -0.180000       12.0110           0
      1708 MEMB     14       PMPE     H14X     HAL2     0.900000E-01   1.00800           0
      1709 MEMB     14       PMPE     H14Y     HAL2     0.900000E-01   1.00800           0
      1710 MEMB     14       PMPE     C315     CTL2    -0.180000       12.0110           0
      1711 MEMB     14       PMPE     H15X     HAL2     0.900000E-01   1.00800           0
      1712 MEMB     14       PMPE     H15Y     HAL2     0.900000E-01   1.00800           0
      1713 MEMB     14       PMPE     C316     CTL3    -0.270000       12.0110           0
      1714 MEMB     14       PMPE     H16X     HAL3     0.900000E-01   1.00800           0
      1715 MEMB     14       PMPE     H16Y     HAL3     0.900000E-01   1.00800           0
      1716 MEMB     14       PMPE     H16Z     HAL3     0.900000E-01   1.00800           0
      1717 MEMB     15       PMPE     N        NH3L    -0.300000       14.0070           0
      1718 MEMB     15       PMPE     HN1      HCL      0.330000       1.00800           0
      1719 MEMB     15       PMPE     HN2      HCL      0.330000       1.00800           0
      1720 MEMB     15       PMPE     HN3      HCL      0.330000       1.00800           0
      1721 MEMB     15       PMPE     C12      CTL2     0.130000       12.0110           0
      1722 MEMB     15       PMPE     H12A     HAL2     0.900000E-01   1.00800           0
      1723 MEMB     15       PMPE     H12B     HAL2     0.900000E-01   1.00800           0
      1724 MEMB     15       PMPE     C11      CTL2    -0.800000E-01   12.0110           0
      1725 MEMB     15       PMPE     H11A     HAL2     0.900000E-01   1.00800           0
      1726 MEMB     15       PMPE     H11B     HAL2     0.900000E-01   1.00800           0
      1727 MEMB     15       PMPE     P        PL        1.50000       30.9740           0
      1728 MEMB     15       PMPE     O13      O2L     -0.780000       15.9994           0
      1729 MEMB     15       PMPE     O14      O2L     -0.780000       15.9994           0
      1730 MEMB     15       PMPE     O11      OSLP    -0.570000       15.9994           0
      1731 MEMB     15       PMPE     O12      OSLP    -0.570000       15.9994           0
      1732 MEMB     15       PMPE     C1       CTL2    -0.800000E-01   12.0110           0
      1733 MEMB     15       PMPE     HA       HAL2     0.900000E-01   1.00800           0
      1734 MEMB     15       PMPE     HB       HAL2     0.900000E-01   1.00800           0
      1735 MEMB     15       PMPE     C2       CTL1     0.170000       12.0110           0
      1736 MEMB     15       PMPE     HS       HAL1     0.900000E-01   1.00800           0
      1737 MEMB     15       PMPE     O21      OSL     -0.490000       15.9994           0
      1738 MEMB     15       PMPE     C21      CL       0.900000       12.0110           0
      1739 MEMB     15       PMPE     O22      OBL     -0.630000       15.9994           0
      1740 MEMB     15       PMPE     C22      CTL2    -0.220000       12.0110           0
      1741 MEMB     15       PMPE     H2R      HAL2     0.900000E-01   1.00800           0
      1742 MEMB     15       PMPE     H2S      HAL2     0.900000E-01   1.00800           0
      1743 MEMB     15       PMPE     C3       CTL2     0.800000E-01   12.0110           0
      1744 MEMB     15       PMPE     HX       HAL2     0.900000E-01   1.00800           0
      1745 MEMB     15       PMPE     HY       HAL2     0.900000E-01   1.00800           0
      1746 MEMB     15       PMPE     O31      OSL     -0.490000       15.9994           0
      1747 MEMB     15       PMPE     C31      CL       0.900000       12.0110           0
      1748 MEMB     15       PMPE     O32      OBL     -0.630000       15.9994           0
      1749 MEMB     15       PMPE     C32      CTL2    -0.220000       12.0110           0
      1750 MEMB     15       PMPE     H2X      HAL2     0.900000E-01   1.00800           0
      1751 MEMB     15       PMPE     H2Y      HAL2     0.900000E-01   1.00800           0
      1752 MEMB     15       PMPE     C23      CTL2    -0.180000       12.0110           0
      1753 MEMB     15       PMPE     H3R      HAL2     0.900000E-01   1.00800           0
      1754 MEMB     15       PMPE     H3S      HAL2     0.900000E-01   1.00800           0
      1755 MEMB     15       PMPE     C24      CTL2    -0.180000       12.0110           0
      1756 MEMB     15       PMPE     H4R      HAL2     0.900000E-01   1.00800           0
      1757 MEMB     15       PMPE     H4S      HAL2     0.900000E-01   1.00800           0
      1758 MEMB     15       PMPE     C25      CTL2    -0.180000       12.0110           0
      1759 MEMB     15       PMPE     H5R      HAL2     0.900000E-01   1.00800           0
      1760 MEMB     15       PMPE     H5S      HAL2     0.900000E-01   1.00800           0
      1761 MEMB     15       PMPE     C26      CTL2    -0.180000       12.0110           0
      1762 MEMB     15       PMPE     H6R      HAL2     0.900000E-01   1.00800           0
      1763 MEMB     15       PMPE     H6S      HAL2     0.900000E-01   1.00800           0
      1764 MEMB     15       PMPE     C27      CTL2    -0.180000       12.0110           0
      1765 MEMB     15       PMPE     H7R      HAL2     0.900000E-01   1.00800           0
      1766 MEMB     15       PMPE     H7S      HAL2     0.900000E-01   1.00800           0
      1767 MEMB     15       PMPE     C28      CTL2    -0.180000       12.0110           0
      1768 MEMB     15       PMPE     H8R      HAL2     0.900000E-01   1.00800           0
      1769 MEMB     15       PMPE     H8S      HAL2     0.900000E-01   1.00800           0
      1770 MEMB     15       PMPE     C29      CG3RC1  -0.900000E-01   12.0110           0
      1771 MEMB     15       PMPE     H9R      HGA1     0.900000E-01   1.00800           0
      1772 MEMB     15       PMPE     C217     CG3C31  -0.180000       12.0110           0
      1773 MEMB     15       PMPE     H17R     HGA2     0.900000E-01   1.00800           0
      1774 MEMB     15       PMPE     H17S     HGA2     0.900000E-01   1.00800           0
      1775 MEMB     15       PMPE     C210     CG3RC1  -0.900000E-01   12.0110           0
      1776 MEMB     15       PMPE     H10R     HGA1     0.900000E-01   1.00800           0
      1777 MEMB     15       PMPE     C211     CTL2    -0.180000       12.0110           0
      1778 MEMB     15       PMPE     H11R     HAL2     0.900000E-01   1.00800           0
      1779 MEMB     15       PMPE     H11S     HAL2     0.900000E-01   1.00800           0
      1780 MEMB     15       PMPE     C212     CTL2    -0.180000       12.0110           0
      1781 MEMB     15       PMPE     H12R     HAL2     0.900000E-01   1.00800           0
      1782 MEMB     15       PMPE     H12S     HAL2     0.900000E-01   1.00800           0
      1783 MEMB     15       PMPE     C213     CTL2    -0.180000       12.0110           0
      1784 MEMB     15       PMPE     H13R     HAL2     0.900000E-01   1.00800           0
      1785 MEMB     15       PMPE     H13S     HAL2     0.900000E-01   1.00800           0
      1786 MEMB     15       PMPE     C214     CTL2    -0.180000       12.0110           0
      1787 MEMB     15       PMPE     H14R     HAL2     0.900000E-01   1.00800           0
      1788 MEMB     15       PMPE     H14S     HAL2     0.900000E-01   1.00800           0
      1789 MEMB     15       PMPE     C215     CTL2    -0.180000       12.0110           0
      1790 MEMB     15       PMPE     H15R     HAL2     0.900000E-01   1.00800           0
      1791 MEMB     15       PMPE     H15S     HAL2     0.900000E-01   1.00800           0
      1792 MEMB     15       PMPE     C216     CTL3    -0.270000       12.0110           0
      1793 MEMB     15       PMPE     H16R     HAL3     0.900000E-01   1.00800           0
      1794 MEMB     15       PMPE     H16S     HAL3     0.900000E-01   1.00800           0
      1795 MEMB     15       PMPE     H16T     HAL3     0.900000E-01   1.00800           0
      1796 MEMB     15       PMPE     C33      CTL2    -0.180000       12.0110           0
      1797 MEMB     15       PMPE     H3X      HAL2     0.900000E-01   1.00800           0
      1798 MEMB     15       PMPE     H3Y      HAL2     0.900000E-01   1.00800           0
      1799 MEMB     15       PMPE     C34      CTL2    -0.180000       12.0110           0
      1800 MEMB     15       PMPE     H4X      HAL2     0.900000E-01   1.00800           0
      1801 MEMB     15       PMPE     H4Y      HAL2     0.900000E-01   1.00800           0
      1802 MEMB     15       PMPE     C35      CTL2    -0.180000       12.0110           0
      1803 MEMB     15       PMPE     H5X      HAL2     0.900000E-01   1.00800           0
      1804 MEMB     15       PMPE     H5Y      HAL2     0.900000E-01   1.00800           0
      1805 MEMB     15       PMPE     C36      CTL2    -0.180000       12.0110           0
      1806 MEMB     15       PMPE     H6X      HAL2     0.900000E-01   1.00800           0
      1807 MEMB     15       PMPE     H6Y      HAL2     0.900000E-01   1.00800           0
      1808 MEMB     15       PMPE     C37      CTL2    -0.180000       12.0110           0
      1809 MEMB     15       PMPE     H7X      HAL2     0.900000E-01   1.00800           0
      1810 MEMB     15       PMPE     H7Y      HAL2     0.900000E-01   1.00800           0
      1811 MEMB     15       PMPE     C38      CTL2    -0.180000       12.0110           0
      1812 MEMB     15       PMPE     H8X      HAL2     0.900000E-01   1.00800           0
      1813 MEMB     15       PMPE     H8Y      HAL2     0.900000E-01   1.00800           0
      1814 MEMB     15       PMPE     C39      CTL2    -0.180000       12.0110           0
      1815 MEMB     15       PMPE     H9X      HAL2     0.900000E-01   1.00800           0
      1816 MEMB     15       PMPE     H9Y      HAL2     0.900000E-01   1.00800           0
      1817 MEMB     15       PMPE     C310     CTL2    -0.180000       12.0110           0
      1818 MEMB     15       PMPE     H10X     HAL2     0.900000E-01   1.00800           0
      1819 MEMB     15       PMPE     H10Y     HAL2     0.900000E-01   1.00800           0
      1820 MEMB     15       PMPE     C311     CTL2    -0.180000       12.0110           0
      1821 MEMB     15       PMPE     H11X     HAL2     0.900000E-01   1.00800           0
      1822 MEMB     15       PMPE     H11Y     HAL2     0.900000E-01   1.00800           0
      1823 MEMB     15       PMPE     C312     CTL2    -0.180000       12.0110           0
      1824 MEMB     15       PMPE     H12X     HAL2     0.900000E-01   1.00800           0
      1825 MEMB     15       PMPE     H12Y     HAL2     0.900000E-01   1.00800           0
      1826 MEMB     15       PMPE     C313     CTL2    -0.180000       12.0110           0
      1827 MEMB     15       PMPE     H13X     HAL2     0.900000E-01   1.00800           0
      1828 MEMB     15       PMPE     H13Y     HAL2     0.900000E-01   1.00800           0
      1829 MEMB     15       PMPE     C314     CTL2    -0.180000       12.0110           0
      1830 MEMB     15       PMPE     H14X     HAL2     0.900000E-01   1.00800           0
      1831 MEMB     15       PMPE     H14Y     HAL2     0.900000E-01   1.00800           0
      1832 MEMB     15       PMPE     C315     CTL2    -0.180000       12.0110           0
      1833 MEMB     15       PMPE     H15X     HAL2     0.900000E-01   1.00800           0
      1834 MEMB     15       PMPE     H15Y     HAL2     0.900000E-01   1.00800           0
      1835 MEMB     15       PMPE     C316     CTL3    -0.270000       12.0110           0
      1836 MEMB     15       PMPE     H16X     HAL3     0.900000E-01   1.00800           0
      1837 MEMB     15       PMPE     H16Y     HAL3     0.900000E-01   1.00800           0
      1838 MEMB     15       PMPE     H16Z     HAL3     0.900000E-01   1.00800           0
      1839 MEMB     16       PMPE     N        NH3L    -0.300000       14.0070           0
      1840 MEMB     16       PMPE     HN1      HCL      0.330000       1.00800           0
      1841 MEMB     16       PMPE     HN2      HCL      0.330000       1.00800           0
      1842 MEMB     16       PMPE     HN3      HCL      0.330000       1.00800           0
      1843 MEMB     16       PMPE     C12      CTL2     0.130000       12.0110           0
      1844 MEMB     16       PMPE     H12A     HAL2     0.900000E-01   1.00800           0
      1845 MEMB     16       PMPE     H12B     HAL2     0.900000E-01   1.00800           0
      1846 MEMB     16       PMPE     C11      CTL2    -0.800000E-01   12.0110           0
      1847 MEMB     16       PMPE     H11A     HAL2     0.900000E-01   1.00800           0
      1848 MEMB     16       PMPE     H11B     HAL2     0.900000E-01   1.00800           0
      1849 MEMB     16       PMPE     P        PL        1.50000       30.9740           0
      1850 MEMB     16       PMPE     O13      O2L     -0.780000       15.9994           0
      1851 MEMB     16       PMPE     O14      O2L     -0.780000       15.9994           0
      1852 MEMB     16       PMPE     O11      OSLP    -0.570000       15.9994           0
      1853 MEMB     16       PMPE     O12      OSLP    -0.570000       15.9994           0
      1854 MEMB     16       PMPE     C1       CTL2    -0.800000E-01   12.0110           0
      1855 MEMB     16       PMPE     HA       HAL2     0.900000E-01   1.00800           0
      1856 MEMB     16       PMPE     HB       HAL2     0.900000E-01   1.00800           0
      1857 MEMB     16       PMPE     C2       CTL1     0.170000       12.0110           0
      1858 MEMB     16       PMPE     HS       HAL1     0.900000E-01   1.00800           0
      1859 MEMB     16       PMPE     O21      OSL     -0.490000       15.9994           0
      1860 MEMB     16       PMPE     C21      CL       0.900000       12.0110           0
      1861 MEMB     16       PMPE     O22      OBL     -0.630000       15.9994           0
      1862 MEMB     16       PMPE     C22      CTL2    -0.220000       12.0110           0
      1863 MEMB     16       PMPE     H2R      HAL2     0.900000E-01   1.00800           0
      1864 MEMB     16       PMPE     H2S      HAL2     0.900000E-01   1.00800           0
      1865 MEMB     16       PMPE     C3       CTL2     0.800000E-01   12.0110           0
      1866 MEMB     16       PMPE     HX       HAL2     0.900000E-01   1.00800           0
      1867 MEMB     16       PMPE     HY       HAL2     0.900000E-01   1.00800           0
      1868 MEMB     16       PMPE     O31      OSL     -0.490000       15.9994           0
      1869 MEMB     16       PMPE     C31      CL       0.900000       12.0110           0
      1870 MEMB     16       PMPE     O32      OBL     -0.630000       15.9994           0
      1871 MEMB     16       PMPE     C32      CTL2    -0.220000       12.0110           0
      1872 MEMB     16       PMPE     H2X      HAL2     0.900000E-01   1.00800           0
      1873 MEMB     16       PMPE     H2Y      HAL2     0.900000E-01   1.00800           0
      1874 MEMB     16       PMPE     C23      CTL2    -0.180000       12.0110           0
      1875 MEMB     16       PMPE     H3R      HAL2     0.900000E-01   1.00800           0
      1876 MEMB     16       PMPE     H3S      HAL2     0.900000E-01   1.00800           0
      1877 MEMB     16       PMPE     C24      CTL2    -0.180000       12.0110           0
      1878 MEMB     16       PMPE     H4R      HAL2     0.900000E-01   1.00800           0
      1879 MEMB     16       PMPE     H4S      HAL2     0.900000E-01   1.00800           0
      1880 MEMB     16       PMPE     C25      CTL2    -0.180000       12.0110           0
      1881 MEMB     16       PMPE     H5R      HAL2     0.900000E-01   1.00800           0
      1882 MEMB     16       PMPE     H5S      HAL2     0.900000E-01   1.00800           0
      1883 MEMB     16       PMPE     C26      CTL2    -0.180000       12.0110           0
      1884 MEMB     16       PMPE     H6R      HAL2     0.900000E-01   1.00800           0
      1885 MEMB     16       PMPE     H6S      HAL2     0.900000E-01   1.00800           0
      1886 MEMB     16       PMPE     C27      CTL2    -0.180000       12.0110           0
      1887 MEMB     16       PMPE     H7R      HAL2     0.900000E-01   1.00800           0
      1888 MEMB     16       PMPE     H7S      HAL2     0.900000E-01   1.00800           0
      1889 MEMB     16       PMPE     C28      CTL2    -0.180000       12.0110           0
      1890 MEMB     16       PMPE     H8R      HAL2     0.900000E-01   1.00800           0
      1891 MEMB     16       PMPE     H8S      HAL2     0.900000E-01   1.00800           0
      1892 MEMB     16       PMPE     C29      CG3RC1  -0.900000E-01   12.0110           0
      1893 MEMB     16       PMPE     H9R      HGA1     0.900000E-01   1.00800           0
      1894 MEMB     16       PMPE     C217     CG3C31  -0.180000       12.0110           0
      1895 MEMB     16       PMPE     H17R     HGA2     0.900000E-01   1.00800           0
      1896 MEMB     16       PMPE     H17S     HGA2     0.900000E-01   1.00800           0
      1897 MEMB     16       PMPE     C210     CG3RC1  -0.900000E-01   12.0110           0
      1898 MEMB     16       PMPE     H10R     HGA1     0.900000E-01   1.00800           0
      1899 MEMB     16       PMPE     C211     CTL2    -0.180000       12.0110           0
      1900 MEMB     16       PMPE     H11R     HAL2     0.900000E-01   1.00800           0
      1901 MEMB     16       PMPE     H11S     HAL2     0.900000E-01   1.00800           0
      1902 MEMB     16       PMPE     C212     CTL2    -0.180000       12.0110           0
      1903 MEMB     16       PMPE     H12R     HAL2     0.900000E-01   1.00800           0
      1904 MEMB     16       PMPE     H12S     HAL2     0.900000E-01   1.00800           0
      1905 MEMB     16       PMPE     C213     CTL2    -0.180000       12.0110           0
      1906 MEMB     16       PMPE     H13R     HAL2     0.900000E-01   1.00800           0
      1907 MEMB     16       PMPE     H13S     HAL2     0.900000E-01   1.00800           0
      1908 MEMB     16       PMPE     C214     CTL2    -0.180000       12.0110           0
      1909 MEMB     16       PMPE     H14R     HAL2     0.900000E-01   1.00800           0
      1910 MEMB     16       PMPE     H14S     HAL2     0.900000E-01   1.00800           0
      1911 MEMB     16       PMPE     C215     CTL2    -0.180000       12.0110           0
      1912 MEMB     16       PMPE     H15R     HAL2     0.900000E-01   1.00800           0
      1913 MEMB     16       PMPE     H15S     HAL2     0.900000E-01   1.00800           0
      1914 MEMB     16       PMPE     C216     CTL3    -0.270000       12.0110           0
      1915 MEMB     16       PMPE     H16R     HAL3     0.900000E-01   1.00800           0
      1916 MEMB     16       PMPE     H16S     HAL3     0.900000E-01   1.00800           0
      1917 MEMB     16       PMPE     H16T     HAL3     0.900000E-01   1.00800           0
      1918 MEMB     16       PMPE     C33      CTL2    -0.180000       12.0110           0
      1919 MEMB     16       PMPE     H3X      HAL2     0.900000E-01   1.00800           0
      1920 MEMB     16       PMPE     H3Y      HAL2     0.900000E-01   1.00800           0
      1921 MEMB     16       PMPE     C34      CTL2    -0.180000       12.0110           0
      1922 MEMB     16       PMPE     H4X      HAL2     0.900000E-01   1.00800           0
      1923 MEMB     16       PMPE     H4Y      HAL2     0.900000E-01   1.00800           0
      1924 MEMB     16       PMPE     C35      CTL2    -0.180000       12.0110           0
      1925 MEMB     16       PMPE     H5X      HAL2     0.900000E-01   1.00800           0
      1926 MEMB     16       PMPE     H5Y      HAL2     0.900000E-01   1.00800           0
      1927 MEMB     16       PMPE     C36      CTL2    -0.180000       12.0110           0
      1928 MEMB     16       PMPE     H6X      HAL2     0.900000E-01   1.00800           0
      1929 MEMB     16       PMPE     H6Y      HAL2     0.900000E-01   1.00800           0
      1930 MEMB     16       PMPE     C37      CTL2    -0.180000       12.0110           0
      1931 MEMB     16       PMPE     H7X      HAL2     0.900000E-01   1.00800           0
      1932 MEMB     16       PMPE     H7Y      HAL2     0.900000E-01   1.00800           0
      1933 MEMB     16       PMPE     C38      CTL2    -0.180000       12.0110           0
      1934 MEMB     16       PMPE     H8X      HAL2     0.900000E-01   1.00800           0
      1935 MEMB     16       PMPE     H8Y      HAL2     0.900000E-01   1.00800           0
      1936 MEMB     16       PMPE     C39      CTL2    -0.180000       12.0110           0
      1937 MEMB     16       PMPE     H9X      HAL2     0.900000E-01   1.00800           0
      1938 MEMB     16       PMPE     H9Y      HAL2     0.900000E-01   1.00800           0
      1939 MEMB     16       PMPE     C310     CTL2    -0.180000       12.0110           0
      1940 MEMB     16       PMPE     H10X     HAL2     0.900000E-01   1.00800           0
      1941 MEMB     16       PMPE     H10Y     HAL2     0.900000E-01   1.00800           0
      1942 MEMB     16       PMPE     C311     CTL2    -0.180000       12.0110           0
      1943 MEMB     16       PMPE     H11X     HAL2     0.900000E-01   1.00800           0
      1944 MEMB     16       PMPE     H11Y     HAL2     0.900000E-01   1.00800           0
      1945 MEMB     16       PMPE     C312     CTL2    -0.180000       12.0110           0
      1946 MEMB     16       PMPE     H12X     HAL2     0.900000E-01   1.00800           0
      1947 MEMB     16       PMPE     H12Y     HAL2     0.900000E-01   1.00800           0
      1948 MEMB     16       PMPE     C313     CTL2    -0.180000       12.0110           0
      1949 MEMB     16       PMPE     H13X     HAL2     0.900000E-01   1.00800           0
      1950 MEMB     16       PMPE     H13Y     HAL2     0.900000E-01   1.00800           0
      1951 MEMB     16       PMPE     C314     CTL2    -0.180000       12.0110           0
      1952 MEMB     16       PMPE     H14X     HAL2     0.900000E-01   1.00800           0
      1953 MEMB     16       PMPE     H14Y     HAL2     0.900000E-01   1.00800           0
      1954 MEMB     16       PMPE     C315     CTL2    -0.180000       12.0110           0
      1955 MEMB     16       PMPE     H15X     HAL2     0.900000E-01   1.00800           0
      1956 MEMB     16       PMPE     H15Y     HAL2     0.900000E-01   1.00800           0
      1957 MEMB     16       PMPE     C316     CTL3    -0.270000       12.0110           0
      1958 MEMB     16       PMPE     H16X     HAL3     0.900000E-01   1.00800           0
      1959 MEMB     16       PMPE     H16Y     HAL3     0.900000E-01   1.00800           0
      1960 MEMB     16       PMPE     H16Z     HAL3     0.900000E-01   1.00800           0
      1961 MEMB     17       PMPE     N        NH3L    -0.300000       14.0070           0
      1962 MEMB     17       PMPE     HN1      HCL      0.330000       1.00800           0
      1963 MEMB     17       PMPE     HN2      HCL      0.330000       1.00800           0
      1964 MEMB     17       PMPE     HN3      HCL      0.330000       1.00800           0
      1965 MEMB     17       PMPE     C12      CTL2     0.130000       12.0110           0
      1966 MEMB     17       PMPE     H12A     HAL2     0.900000E-01   1.00800           0
      1967 MEMB     17       PMPE     H12B     HAL2     0.900000E-01   1.00800           0
      1968 MEMB     17       PMPE     C11      CTL2    -0.800000E-01   12.0110           0
      1969 MEMB     17       PMPE     H11A     HAL2     0.900000E-01   1.00800           0
      1970 MEMB     17       PMPE     H11B     HAL2     0.900000E-01   1.00800           0
      1971 MEMB     17       PMPE     P        PL        1.50000       30.9740           0
      1972 MEMB     17       PMPE     O13      O2L     -0.780000       15.9994           0
      1973 MEMB     17       PMPE     O14      O2L     -0.780000       15.9994           0
      1974 MEMB     17       PMPE     O11      OSLP    -0.570000       15.9994           0
      1975 MEMB     17       PMPE     O12      OSLP    -0.570000       15.9994           0
      1976 MEMB     17       PMPE     C1       CTL2    -0.800000E-01   12.0110           0
      1977 MEMB     17       PMPE     HA       HAL2     0.900000E-01   1.00800           0
      1978 MEMB     17       PMPE     HB       HAL2     0.900000E-01   1.00800           0
      1979 MEMB     17       PMPE     C2       CTL1     0.170000       12.0110           0
      1980 MEMB     17       PMPE     HS       HAL1     0.900000E-01   1.00800           0
      1981 MEMB     17       PMPE     O21      OSL     -0.490000       15.9994           0
      1982 MEMB     17       PMPE     C21      CL       0.900000       12.0110           0
      1983 MEMB     17       PMPE     O22      OBL     -0.630000       15.9994           0
      1984 MEMB     17       PMPE     C22      CTL2    -0.220000       12.0110           0
      1985 MEMB     17       PMPE     H2R      HAL2     0.900000E-01   1.00800           0
      1986 MEMB     17       PMPE     H2S      HAL2     0.900000E-01   1.00800           0
      1987 MEMB     17       PMPE     C3       CTL2     0.800000E-01   12.0110           0
      1988 MEMB     17       PMPE     HX       HAL2     0.900000E-01   1.00800           0
      1989 MEMB     17       PMPE     HY       HAL2     0.900000E-01   1.00800           0
      1990 MEMB     17       PMPE     O31      OSL     -0.490000       15.9994           0
      1991 MEMB     17       PMPE     C31      CL       0.900000       12.0110           0
      1992 MEMB     17       PMPE     O32      OBL     -0.630000       15.9994           0
      1993 MEMB     17       PMPE     C32      CTL2    -0.220000       12.0110           0
      1994 MEMB     17       PMPE     H2X      HAL2     0.900000E-01   1.00800           0
      1995 MEMB     17       PMPE     H2Y      HAL2     0.900000E-01   1.00800           0
      1996 MEMB     17       PMPE     C23      CTL2    -0.180000       12.0110           0
      1997 MEMB     17       PMPE     H3R      HAL2     0.900000E-01   1.00800           0
      1998 MEMB     17       PMPE     H3S      HAL2     0.900000E-01   1.00800           0
      1999 MEMB     17       PMPE     C24      CTL2    -0.180000       12.0110           0
      2000 MEMB     17       PMPE     H4R      HAL2     0.900000E-01   1.00800           0
      2001 MEMB     17       PMPE     H4S      HAL2     0.900000E-01   1.00800           0
      2002 MEMB     17       PMPE     C25      CTL2    -0.180000       12.0110           0
      2003 MEMB     17       PMPE     H5R      HAL2     0.900000E-01   1.00800           0
      2004 MEMB     17       PMPE     H5S      HAL2     0.900000E-01   1.00800           0
      2005 MEMB     17       PMPE     C26      CTL2    -0.180000       12.0110           0
      2006 MEMB     17       PMPE     H6R      HAL2     0.900000E-01   1.00800           0
      2007 MEMB     17       PMPE     H6S      HAL2     0.900000E-01   1.00800           0
      2008 MEMB     17       PMPE     C27      CTL2    -0.180000       12.0110           0
      2009 MEMB     17       PMPE     H7R      HAL2     0.900000E-01   1.00800           0
      2010 MEMB     17       PMPE     H7S      HAL2     0.900000E-01   1.00800           0
      2011 MEMB     17       PMPE     C28      CTL2    -0.180000       12.0110           0
      2012 MEMB     17       PMPE     H8R      HAL2     0.900000E-01   1.00800           0
      2013 MEMB     17       PMPE     H8S      HAL2     0.900000E-01   1.00800           0
      2014 MEMB     17       PMPE     C29      CG3RC1  -0.900000E-01   12.0110           0
      2015 MEMB     17       PMPE     H9R      HGA1     0.900000E-01   1.00800           0
      2016 MEMB     17       PMPE     C217     CG3C31  -0.180000       12.0110           0
      2017 MEMB     17       PMPE     H17R     HGA2     0.900000E-01   1.00800           0
      2018 MEMB     17       PMPE     H17S     HGA2     0.900000E-01   1.00800           0
      2019 MEMB     17       PMPE     C210     CG3RC1  -0.900000E-01   12.0110           0
      2020 MEMB     17       PMPE     H10R     HGA1     0.900000E-01   1.00800           0
      2021 MEMB     17       PMPE     C211     CTL2    -0.180000       12.0110           0
      2022 MEMB     17       PMPE     H11R     HAL2     0.900000E-01   1.00800           0
      2023 MEMB     17       PMPE     H11S     HAL2     0.900000E-01   1.00800           0
      2024 MEMB     17       PMPE     C212     CTL2    -0.180000       12.0110           0
      2025 MEMB     17       PMPE     H12R     HAL2     0.900000E-01   1.00800           0
      2026 MEMB     17       PMPE     H12S     HAL2     0.900000E-01   1.00800           0
      2027 MEMB     17       PMPE     C213     CTL2    -0.180000       12.0110           0
      2028 MEMB     17       PMPE     H13R     HAL2     0.900000E-01   1.00800           0
      2029 MEMB     17       PMPE     H13S     HAL2     0.900000E-01   1.00800           0
      2030 MEMB     17       PMPE     C214     CTL2    -0.180000       12.0110           0
      2031 MEMB     17       PMPE     H14R     HAL2     0.900000E-01   1.00800           0
      2032 MEMB     17       PMPE     H14S     HAL2     0.900000E-01   1.00800           0
      2033 MEMB     17       PMPE     C215     CTL2    -0.180000       12.0110           0
      2034 MEMB     17       PMPE     H15R     HAL2     0.900000E-01   1.00800           0
      2035 MEMB     17       PMPE     H15S     HAL2     0.900000E-01   1.00800           0
      2036 MEMB     17       PMPE     C216     CTL3    -0.270000       12.0110           0
      2037 MEMB     17       PMPE     H16R     HAL3     0.900000E-01   1.00800           0
      2038 MEMB     17       PMPE     H16S     HAL3     0.900000E-01   1.00800           0
      2039 MEMB     17       PMPE     H16T     HAL3     0.900000E-01   1.00800           0
      2040 MEMB     17       PMPE     C33      CTL2    -0.180000       12.0110           0
      2041 MEMB     17       PMPE     H3X      HAL2     0.900000E-01   1.00800           0
      2042 MEMB     17       PMPE     H3Y      HAL2     0.900000E-01   1.00800           0
      2043 MEMB     17       PMPE     C34      CTL2    -0.180000       12.0110           0
      2044 MEMB     17       PMPE     H4X      HAL2     0.900000E-01   1.00800           0
      2045 MEMB     17       PMPE     H4Y      HAL2     0.900000E-01   1.00800           0
      2046 MEMB     17       PMPE     C35      CTL2    -0.180000       12.0110           0
      2047 MEMB     17       PMPE     H5X      HAL2     0.900000E-01   1.00800           0
      2048 MEMB     17       PMPE     H5Y      HAL2     0.900000E-01   1.00800           0
      2049 MEMB     17       PMPE     C36      CTL2    -0.180000       12.0110           0
      2050 MEMB     17       PMPE     H6X      HAL2     0.900000E-01   1.00800           0
      2051 MEMB     17       PMPE     H6Y      HAL2     0.900000E-01   1.00800           0
      2052 MEMB     17       PMPE     C37      CTL2    -0.180000       12.0110           0
      2053 MEMB     17       PMPE     H7X      HAL2     0.900000E-01   1.00800           0
      2054 MEMB     17       PMPE     H7Y      HAL2     0.900000E-01   1.00800           0
      2055 MEMB     17       PMPE     C38      CTL2    -0.180000       12.0110           0
      2056 MEMB     17       PMPE     H8X      HAL2     0.900000E-01   1.00800           0
      2057 MEMB     17       PMPE     H8Y      HAL2     0.900000E-01   1.00800           0
      2058 MEMB     17       PMPE     C39      CTL2    -0.180000       12.0110           0
      2059 MEMB     17       PMPE     H9X      HAL2     0.900000E-01   1.00800           0
      2060 MEMB     17       PMPE     H9Y      HAL2     0.900000E-01   1.00800           0
      2061 MEMB     17       PMPE     C310     CTL2    -0.180000       12.0110           0
      2062 MEMB     17       PMPE     H10X     HAL2     0.900000E-01   1.00800           0
      2063 MEMB     17       PMPE     H10Y     HAL2     0.900000E-01   1.00800           0
      2064 MEMB     17       PMPE     C311     CTL2    -0.180000       12.0110           0
      2065 MEMB     17       PMPE     H11X     HAL2     0.900000E-01   1.00800           0
      2066 MEMB     17       PMPE     H11Y     HAL2     0.900000E-01   1.00800           0
      2067 MEMB     17       PMPE     C312     CTL2    -0.180000       12.0110           0
      2068 MEMB     17       PMPE     H12X     HAL2     0.900000E-01   1.00800           0
      2069 MEMB     17       PMPE     H12Y     HAL2     0.900000E-01   1.00800           0
      2070 MEMB     17       PMPE     C313     CTL2    -0.180000       12.0110           0
      2071 MEMB     17       PMPE     H13X     HAL2     0.900000E-01   1.00800           0
      2072 MEMB     17       PMPE     H13Y     HAL2     0.900000E-01   1.00800           0
      2073 MEMB     17       PMPE     C314     CTL2    -0.180000       12.0110           0
      2074 MEMB     17       PMPE     H14X     HAL2     0.900000E-01   1.00800           0
      2075 MEMB     17       PMPE     H14Y     HAL2     0.900000E-01   1.00800           0
      2076 MEMB     17       PMPE     C315     CTL2    -0.180000       12.0110           0
      2077 MEMB     17       PMPE     H15X     HAL2     0.900000E-01   1.00800           0
      2078 MEMB     17       PMPE     H15Y     HAL2     0.900000E-01   1.00800           0
      2079 MEMB     17       PMPE     C316     CTL3    -0.270000       12.0110           0
      2080 MEMB     17       PMPE     H16X     HAL3     0.900000E-01   1.00800           0
      2081 MEMB     17       PMPE     H16Y     HAL3     0.900000E-01   1.00800           0
      2082 MEMB     17       PMPE     H16Z     HAL3     0.900000E-01   1.00800           0
      2083 MEMB     18       PYPG     C13      CTL2     0.500000E-01   12.0110           0
      2084 MEMB     18       PYPG     H13A     HAL2     0.900000E-01   1.00800           0
      2085 MEMB     18       PYPG     H13B     HAL2     0.900000E-01   1.00800           0
      2086 MEMB     18       PYPG     OC3      OHL     -0.660000       15.9994           0
      2087 MEMB     18       PYPG     HO3      HOL      0.430000       1.00800           0
      2088 MEMB     18       PYPG     C12      CTL1     0.140000       12.0110           0
      2089 MEMB     18       PYPG     H12A     HAL1     0.900000E-01   1.00800           0
      2090 MEMB     18       PYPG     OC2      OHL     -0.660000       15.9994           0
      2091 MEMB     18       PYPG     HO2      HOL      0.430000       1.00800           0
      2092 MEMB     18       PYPG     C11      CTL2    -0.800000E-01   12.0110           0
      2093 MEMB     18       PYPG     H11A     HAL2     0.900000E-01   1.00800           0
      2094 MEMB     18       PYPG     H11B     HAL2     0.900000E-01   1.00800           0
      2095 MEMB     18       PYPG     P        PL        1.50000       30.9740           0
      2096 MEMB     18       PYPG     O13      O2L     -0.780000       15.9994           0
      2097 MEMB     18       PYPG     O14      O2L     -0.780000       15.9994           0
      2098 MEMB     18       PYPG     O11      OSLP    -0.570000       15.9994           0
      2099 MEMB     18       PYPG     O12      OSLP    -0.570000       15.9994           0
      2100 MEMB     18       PYPG     C1       CTL2    -0.800000E-01   12.0110           0
      2101 MEMB     18       PYPG     HA       HAL2     0.900000E-01   1.00800           0
      2102 MEMB     18       PYPG     HB       HAL2     0.900000E-01   1.00800           0
      2103 MEMB     18       PYPG     C2       CTL1     0.170000       12.0110           0
      2104 MEMB     18       PYPG     HS       HAL1     0.900000E-01   1.00800           0
      2105 MEMB     18       PYPG     O21      OSL     -0.490000       15.9994           0
      2106 MEMB     18       PYPG     C21      CL       0.900000       12.0110           0
      2107 MEMB     18       PYPG     O22      OBL     -0.630000       15.9994           0
      2108 MEMB     18       PYPG     C22      CTL2    -0.220000       12.0110           0
      2109 MEMB     18       PYPG     H2R      HAL2     0.900000E-01   1.00800           0
      2110 MEMB     18       PYPG     H2S      HAL2     0.900000E-01   1.00800           0
      2111 MEMB     18       PYPG     C3       CTL2     0.800000E-01   12.0110           0
      2112 MEMB     18       PYPG     HX       HAL2     0.900000E-01   1.00800           0
      2113 MEMB     18       PYPG     HY       HAL2     0.900000E-01   1.00800           0
      2114 MEMB     18       PYPG     O31      OSL     -0.490000       15.9994           0
      2115 MEMB     18       PYPG     C31      CL       0.900000       12.0110           0
      2116 MEMB     18       PYPG     O32      OBL     -0.630000       15.9994           0
      2117 MEMB     18       PYPG     C32      CTL2    -0.220000       12.0110           0
      2118 MEMB     18       PYPG     H2X      HAL2     0.900000E-01   1.00800           0
      2119 MEMB     18       PYPG     H2Y      HAL2     0.900000E-01   1.00800           0
      2120 MEMB     18       PYPG     C23      CTL2    -0.180000       12.0110           0
      2121 MEMB     18       PYPG     H3R      HAL2     0.900000E-01   1.00800           0
      2122 MEMB     18       PYPG     H3S      HAL2     0.900000E-01   1.00800           0
      2123 MEMB     18       PYPG     C24      CTL2    -0.180000       12.0110           0
      2124 MEMB     18       PYPG     H4R      HAL2     0.900000E-01   1.00800           0
      2125 MEMB     18       PYPG     H4S      HAL2     0.900000E-01   1.00800           0
      2126 MEMB     18       PYPG     C25      CTL2    -0.180000       12.0110           0
      2127 MEMB     18       PYPG     H5R      HAL2     0.900000E-01   1.00800           0
      2128 MEMB     18       PYPG     H5S      HAL2     0.900000E-01   1.00800           0
      2129 MEMB     18       PYPG     C26      CTL2    -0.180000       12.0110           0
      2130 MEMB     18       PYPG     H6R      HAL2     0.900000E-01   1.00800           0
      2131 MEMB     18       PYPG     H6S      HAL2     0.900000E-01   1.00800           0
      2132 MEMB     18       PYPG     C27      CTL2    -0.180000       12.0110           0
      2133 MEMB     18       PYPG     H7R      HAL2     0.900000E-01   1.00800           0
      2134 MEMB     18       PYPG     H7S      HAL2     0.900000E-01   1.00800           0
      2135 MEMB     18       PYPG     C28      CTL2    -0.180000       12.0110           0
      2136 MEMB     18       PYPG     H8R      HAL2     0.900000E-01   1.00800           0
      2137 MEMB     18       PYPG     H8S      HAL2     0.900000E-01   1.00800           0
      2138 MEMB     18       PYPG     C29      CEL1    -0.150000       12.0110           0
      2139 MEMB     18       PYPG     H9R      HEL1     0.150000       1.00800           0
      2140 MEMB     18       PYPG     C210     CEL1    -0.150000       12.0110           0
      2141 MEMB     18       PYPG     H10R     HEL1     0.150000       1.00800           0
      2142 MEMB     18       PYPG     C211     CTL2    -0.180000       12.0110           0
      2143 MEMB     18       PYPG     H11R     HAL2     0.900000E-01   1.00800           0
      2144 MEMB     18       PYPG     H11S     HAL2     0.900000E-01   1.00800           0
      2145 MEMB     18       PYPG     C212     CTL2    -0.180000       12.0110           0
      2146 MEMB     18       PYPG     H12R     HAL2     0.900000E-01   1.00800           0
      2147 MEMB     18       PYPG     H12S     HAL2     0.900000E-01   1.00800           0
      2148 MEMB     18       PYPG     C213     CTL2    -0.180000       12.0110           0
      2149 MEMB     18       PYPG     H13R     HAL2     0.900000E-01   1.00800           0
      2150 MEMB     18       PYPG     H13S     HAL2     0.900000E-01   1.00800           0
      2151 MEMB     18       PYPG     C214     CTL2    -0.180000       12.0110           0
      2152 MEMB     18       PYPG     H14R     HAL2     0.900000E-01   1.00800           0
      2153 MEMB     18       PYPG     H14S     HAL2     0.900000E-01   1.00800           0
      2154 MEMB     18       PYPG     C215     CTL2    -0.180000       12.0110           0
      2155 MEMB     18       PYPG     H15R     HAL2     0.900000E-01   1.00800           0
      2156 MEMB     18       PYPG     H15S     HAL2     0.900000E-01   1.00800           0
      2157 MEMB     18       PYPG     C216     CTL3    -0.270000       12.0110           0
      2158 MEMB     18       PYPG     H16R     HAL3     0.900000E-01   1.00800           0
      2159 MEMB     18       PYPG     H16S     HAL3     0.900000E-01   1.00800           0
      2160 MEMB     18       PYPG     H16T     HAL3     0.900000E-01   1.00800           0
      2161 MEMB     18       PYPG     C33      CTL2    -0.180000       12.0110           0
      2162 MEMB     18       PYPG     H3X      HAL2     0.900000E-01   1.00800           0
      2163 MEMB     18       PYPG     H3Y      HAL2     0.900000E-01   1.00800           0
      2164 MEMB     18       PYPG     C34      CTL2    -0.180000       12.0110           0
      2165 MEMB     18       PYPG     H4X      HAL2     0.900000E-01   1.00800           0
      2166 MEMB     18       PYPG     H4Y      HAL2     0.900000E-01   1.00800           0
      2167 MEMB     18       PYPG     C35      CTL2    -0.180000       12.0110           0
      2168 MEMB     18       PYPG     H5X      HAL2     0.900000E-01   1.00800           0
      2169 MEMB     18       PYPG     H5Y      HAL2     0.900000E-01   1.00800           0
      2170 MEMB     18       PYPG     C36      CTL2    -0.180000       12.0110           0
      2171 MEMB     18       PYPG     H6X      HAL2     0.900000E-01   1.00800           0
      2172 MEMB     18       PYPG     H6Y      HAL2     0.900000E-01   1.00800           0
      2173 MEMB     18       PYPG     C37      CTL2    -0.180000       12.0110           0
      2174 MEMB     18       PYPG     H7X      HAL2     0.900000E-01   1.00800           0
      2175 MEMB     18       PYPG     H7Y      HAL2     0.900000E-01   1.00800           0
      2176 MEMB     18       PYPG     C38      CTL2    -0.180000       12.0110           0
      2177 MEMB     18       PYPG     H8X      HAL2     0.900000E-01   1.00800           0
      2178 MEMB     18       PYPG     H8Y      HAL2     0.900000E-01   1.00800           0
      2179 MEMB     18       PYPG     C39      CTL2    -0.180000       12.0110           0
      2180 MEMB     18       PYPG     H9X      HAL2     0.900000E-01   1.00800           0
      2181 MEMB     18       PYPG     H9Y      HAL2     0.900000E-01   1.00800           0
      2182 MEMB     18       PYPG     C310     CTL2    -0.180000       12.0110           0
      2183 MEMB     18       PYPG     H10X     HAL2     0.900000E-01   1.00800           0
      2184 MEMB     18       PYPG     H10Y     HAL2     0.900000E-01   1.00800           0
      2185 MEMB     18       PYPG     C311     CTL2    -0.180000       12.0110           0
      2186 MEMB     18       PYPG     H11X     HAL2     0.900000E-01   1.00800           0
      2187 MEMB     18       PYPG     H11Y     HAL2     0.900000E-01   1.00800           0
      2188 MEMB     18       PYPG     C312     CTL2    -0.180000       12.0110           0
      2189 MEMB     18       PYPG     H12X     HAL2     0.900000E-01   1.00800           0
      2190 MEMB     18       PYPG     H12Y     HAL2     0.900000E-01   1.00800           0
      2191 MEMB     18       PYPG     C313     CTL2    -0.180000       12.0110           0
      2192 MEMB     18       PYPG     H13X     HAL2     0.900000E-01   1.00800           0
      2193 MEMB     18       PYPG     H13Y     HAL2     0.900000E-01   1.00800           0
      2194 MEMB     18       PYPG     C314     CTL2    -0.180000       12.0110           0
      2195 MEMB     18       PYPG     H14X     HAL2     0.900000E-01   1.00800           0
      2196 MEMB     18       PYPG     H14Y     HAL2     0.900000E-01   1.00800           0
      2197 MEMB     18       PYPG     C315     CTL2    -0.180000       12.0110           0
      2198 MEMB     18       PYPG     H15X     HAL2     0.900000E-01   1.00800           0
      2199 MEMB     18       PYPG     H15Y     HAL2     0.900000E-01   1.00800           0
      2200 MEMB     18       PYPG     C316     CTL3    -0.270000       12.0110           0
      2201 MEMB     18       PYPG     H16X     HAL3     0.900000E-01   1.00800           0
      2202 MEMB     18       PYPG     H16Y     HAL3     0.900000E-01   1.00800           0
      2203 MEMB     18       PYPG     H16Z     HAL3     0.900000E-01   1.00800           0
      2204 MEMB     19       PMPE     N        NH3L    -0.300000       14.0070           0
      2205 MEMB     19       PMPE     HN1      HCL      0.330000       1.00800           0
      2206 MEMB     19       PMPE     HN2      HCL      0.330000       1.00800           0
      2207 MEMB     19       PMPE     HN3      HCL      0.330000       1.00800           0
      2208 MEMB     19       PMPE     C12      CTL2     0.130000       12.0110           0
      2209 MEMB     19       PMPE     H12A     HAL2     0.900000E-01   1.00800           0
      2210 MEMB     19       PMPE     H12B     HAL2     0.900000E-01   1.00800           0
      2211 MEMB     19       PMPE     C11      CTL2    -0.800000E-01   12.0110           0
      2212 MEMB     19       PMPE     H11A     HAL2     0.900000E-01   1.00800           0
      2213 MEMB     19       PMPE     H11B     HAL2     0.900000E-01   1.00800           0
      2214 MEMB     19       PMPE     P        PL        1.50000       30.9740           0
      2215 MEMB     19       PMPE     O13      O2L     -0.780000       15.9994           0
      2216 MEMB     19       PMPE     O14      O2L     -0.780000       15.9994           0
      2217 MEMB     19       PMPE     O11      OSLP    -0.570000       15.9994           0
      2218 MEMB     19       PMPE     O12      OSLP    -0.570000       15.9994           0
      2219 MEMB     19       PMPE     C1       CTL2    -0.800000E-01   12.0110           0
      2220 MEMB     19       PMPE     HA       HAL2     0.900000E-01   1.00800           0
      2221 MEMB     19       PMPE     HB       HAL2     0.900000E-01   1.00800           0
      2222 MEMB     19       PMPE     C2       CTL1     0.170000       12.0110           0
      2223 MEMB     19       PMPE     HS       HAL1     0.900000E-01   1.00800           0
      2224 MEMB     19       PMPE     O21      OSL     -0.490000       15.9994           0
      2225 MEMB     19       PMPE     C21      CL       0.900000       12.0110           0
      2226 MEMB     19       PMPE     O22      OBL     -0.630000       15.9994           0
      2227 MEMB     19       PMPE     C22      CTL2    -0.220000       12.0110           0
      2228 MEMB     19       PMPE     H2R      HAL2     0.900000E-01   1.00800           0
      2229 MEMB     19       PMPE     H2S      HAL2     0.900000E-01   1.00800           0
      2230 MEMB     19       PMPE     C3       CTL2     0.800000E-01   12.0110           0
      2231 MEMB     19       PMPE     HX       HAL2     0.900000E-01   1.00800           0
      2232 MEMB     19       PMPE     HY       HAL2     0.900000E-01   1.00800           0
      2233 MEMB     19       PMPE     O31      OSL     -0.490000       15.9994           0
      2234 MEMB     19       PMPE     C31      CL       0.900000       12.0110           0
      2235 MEMB     19       PMPE     O32      OBL     -0.630000       15.9994           0
      2236 MEMB     19       PMPE     C32      CTL2    -0.220000       12.0110           0
      2237 MEMB     19       PMPE     H2X      HAL2     0.900000E-01   1.00800           0
      2238 MEMB     19       PMPE     H2Y      HAL2     0.900000E-01   1.00800           0
      2239 MEMB     19       PMPE     C23      CTL2    -0.180000       12.0110           0
      2240 MEMB     19       PMPE     H3R      HAL2     0.900000E-01   1.00800           0
      2241 MEMB     19       PMPE     H3S      HAL2     0.900000E-01   1.00800           0
      2242 MEMB     19       PMPE     C24      CTL2    -0.180000       12.0110           0
      2243 MEMB     19       PMPE     H4R      HAL2     0.900000E-01   1.00800           0
      2244 MEMB     19       PMPE     H4S      HAL2     0.900000E-01   1.00800           0
      2245 MEMB     19       PMPE     C25      CTL2    -0.180000       12.0110           0
      2246 MEMB     19       PMPE     H5R      HAL2     0.900000E-01   1.00800           0
      2247 MEMB     19       PMPE     H5S      HAL2     0.900000E-01   1.00800           0
      2248 MEMB     19       PMPE     C26      CTL2    -0.180000       12.0110           0
      2249 MEMB     19       PMPE     H6R      HAL2     0.900000E-01   1.00800           0
      2250 MEMB     19       PMPE     H6S      HAL2     0.900000E-01   1.00800           0
      2251 MEMB     19       PMPE     C27      CTL2    -0.180000       12.0110           0
      2252 MEMB     19       PMPE     H7R      HAL2     0.900000E-01   1.00800           0
      2253 MEMB     19       PMPE     H7S      HAL2     0.900000E-01   1.00800           0
      2254 MEMB     19       PMPE     C28      CTL2    -0.180000       12.0110           0
      2255 MEMB     19       PMPE     H8R      HAL2     0.900000E-01   1.00800           0
      2256 MEMB     19       PMPE     H8S      HAL2     0.900000E-01   1.00800           0
      2257 MEMB     19       PMPE     C29      CG3RC1  -0.900000E-01   12.0110           0
      2258 MEMB     19       PMPE     H9R      HGA1     0.900000E-01   1.00800           0
      2259 MEMB     19       PMPE     C217     CG3C31  -0.180000       12.0110           0
      2260 MEMB     19       PMPE     H17R     HGA2     0.900000E-01   1.00800           0
      2261 MEMB     19       PMPE     H17S     HGA2     0.900000E-01   1.00800           0
      2262 MEMB     19       PMPE     C210     CG3RC1  -0.900000E-01   12.0110           0
      2263 MEMB     19       PMPE     H10R     HGA1     0.900000E-01   1.00800           0
      2264 MEMB     19       PMPE     C211     CTL2    -0.180000       12.0110           0
      2265 MEMB     19       PMPE     H11R     HAL2     0.900000E-01   1.00800           0
      2266 MEMB     19       PMPE     H11S     HAL2     0.900000E-01   1.00800           0
      2267 MEMB     19       PMPE     C212     CTL2    -0.180000       12.0110           0
      2268 MEMB     19       PMPE     H12R     HAL2     0.900000E-01   1.00800           0
      2269 MEMB     19       PMPE     H12S     HAL2     0.900000E-01   1.00800           0
      2270 MEMB     19       PMPE     C213     CTL2    -0.180000       12.0110           0
      2271 MEMB     19       PMPE     H13R     HAL2     0.900000E-01   1.00800           0
      2272 MEMB     19       PMPE     H13S     HAL2     0.900000E-01   1.00800           0
      2273 MEMB     19       PMPE     C214     CTL2    -0.180000       12.0110           0
      2274 MEMB     19       PMPE     H14R     HAL2     0.900000E-01   1.00800           0
      2275 MEMB     19       PMPE     H14S     HAL2     0.900000E-01   1.00800           0
      2276 MEMB     19       PMPE     C215     CTL2    -0.180000       12.0110           0
      2277 MEMB     19       PMPE     H15R     HAL2     0.900000E-01   1.00800           0
      2278 MEMB     19       PMPE     H15S     HAL2     0.900000E-01   1.00800           0
      2279 MEMB     19       PMPE     C216     CTL3    -0.270000       12.0110           0
      2280 MEMB     19       PMPE     H16R     HAL3     0.900000E-01   1.00800           0
      2281 MEMB     19       PMPE     H16S     HAL3     0.900000E-01   1.00800           0
      2282 MEMB     19       PMPE     H16T     HAL3     0.900000E-01   1.00800           0
      2283 MEMB     19       PMPE     C33      CTL2    -0.180000       12.0110           0
      2284 MEMB     19       PMPE     H3X      HAL2     0.900000E-01   1.00800           0
      2285 MEMB     19       PMPE     H3Y      HAL2     0.900000E-01   1.00800           0
      2286 MEMB     19       PMPE     C34      CTL2    -0.180000       12.0110           0
      2287 MEMB     19       PMPE     H4X      HAL2     0.900000E-01   1.00800           0
      2288 MEMB     19       PMPE     H4Y      HAL2     0.900000E-01   1.00800           0
      2289 MEMB     19       PMPE     C35      CTL2    -0.180000       12.0110           0
      2290 MEMB     19       PMPE     H5X      HAL2     0.900000E-01   1.00800           0
      2291 MEMB     19       PMPE     H5Y      HAL2     0.900000E-01   1.00800           0
      2292 MEMB     19       PMPE     C36      CTL2    -0.180000       12.0110           0
      2293 MEMB     19       PMPE     H6X      HAL2     0.900000E-01   1.00800           0
      2294 MEMB     19       PMPE     H6Y      HAL2     0.900000E-01   1.00800           0
      2295 MEMB     19       PMPE     C37      CTL2    -0.180000       12.0110           0
      2296 MEMB     19       PMPE     H7X      HAL2     0.900000E-01   1.00800           0
      2297 MEMB     19       PMPE     H7Y      HAL2     0.900000E-01   1.00800           0
      2298 MEMB     19       PMPE     C38      CTL2    -0.180000       12.0110           0
      2299 MEMB     19       PMPE     H8X      HAL2     0.900000E-01   1.00800           0
      2300 MEMB     19       PMPE     H8Y      HAL2     0.900000E-01   1.00800           0
      2301 MEMB     19       PMPE     C39      CTL2    -0.180000       12.0110           0
      2302 MEMB     19       PMPE     H9X      HAL2     0.900000E-01   1.00800           0
      2303 MEMB     19       PMPE     H9Y      HAL2     0.900000E-01   1.00800           0
      2304 MEMB     19       PMPE     C310     CTL2    -0.180000       12.0110           0
      2305 MEMB     19       PMPE     H10X     HAL2     0.900000E-01   1.00800           0
      2306 MEMB     19       PMPE     H10Y     HAL2     0.900000E-01   1.00800           0
      2307 MEMB     19       PMPE     C311     CTL2    -0.180000       12.0110           0
      2308 MEMB     19       PMPE     H11X     HAL2     0.900000E-01   1.00800           0
      2309 MEMB     19       PMPE     H11Y     HAL2     0.900000E-01   1.00800           0
      2310 MEMB     19       PMPE     C312     CTL2    -0.180000       12.0110           0
      2311 MEMB     19       PMPE     H12X     HAL2     0.900000E-01   1.00800           0
      2312 MEMB     19       PMPE     H12Y     HAL2     0.900000E-01   1.00800           0
      2313 MEMB     19       PMPE     C313     CTL2    -0.180000       12.0110           0
      2314 MEMB     19       PMPE     H13X     HAL2     0.900000E-01   1.00800           0
      2315 MEMB     19       PMPE     H13Y     HAL2     0.900000E-01   1.00800           0
      2316 MEMB     19       PMPE     C314     CTL2    -0.180000       12.0110           0
      2317 MEMB     19       PMPE     H14X     HAL2     0.900000E-01   1.00800           0
      2318 MEMB     19       PMPE     H14Y     HAL2     0.900000E-01   1.00800           0
      2319 MEMB     19       PMPE     C315     CTL2    -0.180000       12.0110           0
      2320 MEMB     19       PMPE     H15X     HAL2     0.900000E-01   1.00800           0
      2321 MEMB     19       PMPE     H15Y     HAL2     0.900000E-01   1.00800           0
      2322 MEMB     19       PMPE     C316     CTL3    -0.270000       12.0110           0
      2323 MEMB     19       PMPE     H16X     HAL3     0.900000E-01   1.00800           0
      2324 MEMB     19       PMPE     H16Y     HAL3     0.900000E-01   1.00800           0
      2325 MEMB     19       PMPE     H16Z     HAL3     0.900000E-01   1.00800           0
      2326 MEMB     20       POPE     N        NH3L    -0.300000       14.0070           0
      2327 MEMB     20       POPE     HN1      HCL      0.330000       1.00800           0
      2328 MEMB     20       POPE     HN2      HCL      0.330000       1.00800           0
      2329 MEMB     20       POPE     HN3      HCL      0.330000       1.00800           0
      2330 MEMB     20       POPE     C12      CTL2     0.130000       12.0110           0
      2331 MEMB     20       POPE     H12A     HAL2     0.900000E-01   1.00800           0
      2332 MEMB     20       POPE     H12B     HAL2     0.900000E-01   1.00800           0
      2333 MEMB     20       POPE     C11      CTL2    -0.800000E-01   12.0110           0
      2334 MEMB     20       POPE     H11A     HAL2     0.900000E-01   1.00800           0
      2335 MEMB     20       POPE     H11B     HAL2     0.900000E-01   1.00800           0
      2336 MEMB     20       POPE     P        PL        1.50000       30.9740           0
      2337 MEMB     20       POPE     O13      O2L     -0.780000       15.9994           0
      2338 MEMB     20       POPE     O14      O2L     -0.780000       15.9994           0
      2339 MEMB     20       POPE     O11      OSLP    -0.570000       15.9994           0
      2340 MEMB     20       POPE     O12      OSLP    -0.570000       15.9994           0
      2341 MEMB     20       POPE     C1       CTL2    -0.800000E-01   12.0110           0
      2342 MEMB     20       POPE     HA       HAL2     0.900000E-01   1.00800           0
      2343 MEMB     20       POPE     HB       HAL2     0.900000E-01   1.00800           0
      2344 MEMB     20       POPE     C2       CTL1     0.170000       12.0110           0
      2345 MEMB     20       POPE     HS       HAL1     0.900000E-01   1.00800           0
      2346 MEMB     20       POPE     O21      OSL     -0.490000       15.9994           0
      2347 MEMB     20       POPE     C21      CL       0.900000       12.0110           0
      2348 MEMB     20       POPE     O22      OBL     -0.630000       15.9994           0
      2349 MEMB     20       POPE     C22      CTL2    -0.220000       12.0110           0
      2350 MEMB     20       POPE     H2R      HAL2     0.900000E-01   1.00800           0
      2351 MEMB     20       POPE     H2S      HAL2     0.900000E-01   1.00800           0
      2352 MEMB     20       POPE     C3       CTL2     0.800000E-01   12.0110           0
      2353 MEMB     20       POPE     HX       HAL2     0.900000E-01   1.00800           0
      2354 MEMB     20       POPE     HY       HAL2     0.900000E-01   1.00800           0
      2355 MEMB     20       POPE     O31      OSL     -0.490000       15.9994           0
      2356 MEMB     20       POPE     C31      CL       0.900000       12.0110           0
      2357 MEMB     20       POPE     O32      OBL     -0.630000       15.9994           0
      2358 MEMB     20       POPE     C32      CTL2    -0.220000       12.0110           0
      2359 MEMB     20       POPE     H2X      HAL2     0.900000E-01   1.00800           0
      2360 MEMB     20       POPE     H2Y      HAL2     0.900000E-01   1.00800           0
      2361 MEMB     20       POPE     C23      CTL2    -0.180000       12.0110           0
      2362 MEMB     20       POPE     H3R      HAL2     0.900000E-01   1.00800           0
      2363 MEMB     20       POPE     H3S      HAL2     0.900000E-01   1.00800           0
      2364 MEMB     20       POPE     C24      CTL2    -0.180000       12.0110           0
      2365 MEMB     20       POPE     H4R      HAL2     0.900000E-01   1.00800           0
      2366 MEMB     20       POPE     H4S      HAL2     0.900000E-01   1.00800           0
      2367 MEMB     20       POPE     C25      CTL2    -0.180000       12.0110           0
      2368 MEMB     20       POPE     H5R      HAL2     0.900000E-01   1.00800           0
      2369 MEMB     20       POPE     H5S      HAL2     0.900000E-01   1.00800           0
      2370 MEMB     20       POPE     C26      CTL2    -0.180000       12.0110           0
      2371 MEMB     20       POPE     H6R      HAL2     0.900000E-01   1.00800           0
      2372 MEMB     20       POPE     H6S      HAL2     0.900000E-01   1.00800           0
      2373 MEMB     20       POPE     C27      CTL2    -0.180000       12.0110           0
      2374 MEMB     20       POPE     H7R      HAL2     0.900000E-01   1.00800           0
      2375 MEMB     20       POPE     H7S      HAL2     0.900000E-01   1.00800           0
      2376 MEMB     20       POPE     C28      CTL2    -0.180000       12.0110           0
      2377 MEMB     20       POPE     H8R      HAL2     0.900000E-01   1.00800           0
      2378 MEMB     20       POPE     H8S      HAL2     0.900000E-01   1.00800           0
      2379 MEMB     20       POPE     C29      CEL1    -0.150000       12.0110           0
      2380 MEMB     20       POPE     H91      HEL1     0.150000       1.00800           0
      2381 MEMB     20       POPE     C210     CEL1    -0.150000       12.0110           0
      2382 MEMB     20       POPE     H101     HEL1     0.150000       1.00800           0
      2383 MEMB     20       POPE     C211     CTL2    -0.180000       12.0110           0
      2384 MEMB     20       POPE     H11R     HAL2     0.900000E-01   1.00800           0
      2385 MEMB     20       POPE     H11S     HAL2     0.900000E-01   1.00800           0
      2386 MEMB     20       POPE     C212     CTL2    -0.180000       12.0110           0
      2387 MEMB     20       POPE     H12R     HAL2     0.900000E-01   1.00800           0
      2388 MEMB     20       POPE     H12S     HAL2     0.900000E-01   1.00800           0
      2389 MEMB     20       POPE     C213     CTL2    -0.180000       12.0110           0
      2390 MEMB     20       POPE     H13R     HAL2     0.900000E-01   1.00800           0
      2391 MEMB     20       POPE     H13S     HAL2     0.900000E-01   1.00800           0
      2392 MEMB     20       POPE     C214     CTL2    -0.180000       12.0110           0
      2393 MEMB     20       POPE     H14R     HAL2     0.900000E-01   1.00800           0
      2394 MEMB     20       POPE     H14S     HAL2     0.900000E-01   1.00800           0
      2395 MEMB     20       POPE     C215     CTL2    -0.180000       12.0110           0
      2396 MEMB     20       POPE     H15R     HAL2     0.900000E-01   1.00800           0
      2397 MEMB     20       POPE     H15S     HAL2     0.900000E-01   1.00800           0
      2398 MEMB     20       POPE     C216     CTL2    -0.180000       12.0110           0
      2399 MEMB     20       POPE     H16R     HAL2     0.900000E-01   1.00800           0
      2400 MEMB     20       POPE     H16S     HAL2     0.900000E-01   1.00800           0
      2401 MEMB     20       POPE     C217     CTL2    -0.180000       12.0110           0
      2402 MEMB     20       POPE     H17R     HAL2     0.900000E-01   1.00800           0
      2403 MEMB     20       POPE     H17S     HAL2     0.900000E-01   1.00800           0
      2404 MEMB     20       POPE     C218     CTL3    -0.270000       12.0110           0
      2405 MEMB     20       POPE     H18R     HAL3     0.900000E-01   1.00800           0
      2406 MEMB     20       POPE     H18S     HAL3     0.900000E-01   1.00800           0
      2407 MEMB     20       POPE     H18T     HAL3     0.900000E-01   1.00800           0
      2408 MEMB     20       POPE     C33      CTL2    -0.180000       12.0110           0
      2409 MEMB     20       POPE     H3X      HAL2     0.900000E-01   1.00800           0
      2410 MEMB     20       POPE     H3Y      HAL2     0.900000E-01   1.00800           0
      2411 MEMB     20       POPE     C34      CTL2    -0.180000       12.0110           0
      2412 MEMB     20       POPE     H4X      HAL2     0.900000E-01   1.00800           0
      2413 MEMB     20       POPE     H4Y      HAL2     0.900000E-01   1.00800           0
      2414 MEMB     20       POPE     C35      CTL2    -0.180000       12.0110           0
      2415 MEMB     20       POPE     H5X      HAL2     0.900000E-01   1.00800           0
      2416 MEMB     20       POPE     H5Y      HAL2     0.900000E-01   1.00800           0
      2417 MEMB     20       POPE     C36      CTL2    -0.180000       12.0110           0
      2418 MEMB     20       POPE     H6X      HAL2     0.900000E-01   1.00800           0
      2419 MEMB     20       POPE     H6Y      HAL2     0.900000E-01   1.00800           0
      2420 MEMB     20       POPE     C37      CTL2    -0.180000       12.0110           0
      2421 MEMB     20       POPE     H7X      HAL2     0.900000E-01   1.00800           0
      2422 MEMB     20       POPE     H7Y      HAL2     0.900000E-01   1.00800           0
      2423 MEMB     20       POPE     C38      CTL2    -0.180000       12.0110           0
      2424 MEMB     20       POPE     H8X      HAL2     0.900000E-01   1.00800           0
      2425 MEMB     20       POPE     H8Y      HAL2     0.900000E-01   1.00800           0
      2426 MEMB     20       POPE     C39      CTL2    -0.180000       12.0110           0
      2427 MEMB     20       POPE     H9X      HAL2     0.900000E-01   1.00800           0
      2428 MEMB     20       POPE     H9Y      HAL2     0.900000E-01   1.00800           0
      2429 MEMB     20       POPE     C310     CTL2    -0.180000       12.0110           0
      2430 MEMB     20       POPE     H10X     HAL2     0.900000E-01   1.00800           0
      2431 MEMB     20       POPE     H10Y     HAL2     0.900000E-01   1.00800           0
      2432 MEMB     20       POPE     C311     CTL2    -0.180000       12.0110           0
      2433 MEMB     20       POPE     H11X     HAL2     0.900000E-01   1.00800           0
      2434 MEMB     20       POPE     H11Y     HAL2     0.900000E-01   1.00800           0
      2435 MEMB     20       POPE     C312     CTL2    -0.180000       12.0110           0
      2436 MEMB     20       POPE     H12X     HAL2     0.900000E-01   1.00800           0
      2437 MEMB     20       POPE     H12Y     HAL2     0.900000E-01   1.00800           0
      2438 MEMB     20       POPE     C313     CTL2    -0.180000       12.0110           0
      2439 MEMB     20       POPE     H13X     HAL2     0.900000E-01   1.00800           0
      2440 MEMB     20       POPE     H13Y     HAL2     0.900000E-01   1.00800           0
      2441 MEMB     20       POPE     C314     CTL2    -0.180000       12.0110           0
      2442 MEMB     20       POPE     H14X     HAL2     0.900000E-01   1.00800           0
      2443 MEMB     20       POPE     H14Y     HAL2     0.900000E-01   1.00800           0
      2444 MEMB     20       POPE     C315     CTL2    -0.180000       12.0110           0
      2445 MEMB     20       POPE     H15X     HAL2     0.900000E-01   1.00800           0
      2446 MEMB     20       POPE     H15Y     HAL2     0.900000E-01   1.00800           0
      2447 MEMB     20       POPE     C316     CTL3    -0.270000       12.0110           0
      2448 MEMB     20       POPE     H16X     HAL3     0.900000E-01   1.00800           0
      2449 MEMB     20       POPE     H16Y     HAL3     0.900000E-01   1.00800           0
      2450 MEMB     20       POPE     H16Z     HAL3     0.900000E-01   1.00800           0
      2451 MEMB     21       PMPE     N        NH3L    -0.300000       14.0070           0
      2452 MEMB     21       PMPE     HN1      HCL      0.330000       1.00800           0
      2453 MEMB     21       PMPE     HN2      HCL      0.330000       1.00800           0
      2454 MEMB     21       PMPE     HN3      HCL      0.330000       1.00800           0
      2455 MEMB     21       PMPE     C12      CTL2     0.130000       12.0110           0
      2456 MEMB     21       PMPE     H12A     HAL2     0.900000E-01   1.00800           0
      2457 MEMB     21       PMPE     H12B     HAL2     0.900000E-01   1.00800           0
      2458 MEMB     21       PMPE     C11      CTL2    -0.800000E-01   12.0110           0
      2459 MEMB     21       PMPE     H11A     HAL2     0.900000E-01   1.00800           0
      2460 MEMB     21       PMPE     H11B     HAL2     0.900000E-01   1.00800           0
      2461 MEMB     21       PMPE     P        PL        1.50000       30.9740           0
      2462 MEMB     21       PMPE     O13      O2L     -0.780000       15.9994           0
      2463 MEMB     21       PMPE     O14      O2L     -0.780000       15.9994           0
      2464 MEMB     21       PMPE     O11      OSLP    -0.570000       15.9994           0
      2465 MEMB     21       PMPE     O12      OSLP    -0.570000       15.9994           0
      2466 MEMB     21       PMPE     C1       CTL2    -0.800000E-01   12.0110           0
      2467 MEMB     21       PMPE     HA       HAL2     0.900000E-01   1.00800           0
      2468 MEMB     21       PMPE     HB       HAL2     0.900000E-01   1.00800           0
      2469 MEMB     21       PMPE     C2       CTL1     0.170000       12.0110           0
      2470 MEMB     21       PMPE     HS       HAL1     0.900000E-01   1.00800           0
      2471 MEMB     21       PMPE     O21      OSL     -0.490000       15.9994           0
      2472 MEMB     21       PMPE     C21      CL       0.900000       12.0110           0
      2473 MEMB     21       PMPE     O22      OBL     -0.630000       15.9994           0
      2474 MEMB     21       PMPE     C22      CTL2    -0.220000       12.0110           0
      2475 MEMB     21       PMPE     H2R      HAL2     0.900000E-01   1.00800           0
      2476 MEMB     21       PMPE     H2S      HAL2     0.900000E-01   1.00800           0
      2477 MEMB     21       PMPE     C3       CTL2     0.800000E-01   12.0110           0
      2478 MEMB     21       PMPE     HX       HAL2     0.900000E-01   1.00800           0
      2479 MEMB     21       PMPE     HY       HAL2     0.900000E-01   1.00800           0
      2480 MEMB     21       PMPE     O31      OSL     -0.490000       15.9994           0
      2481 MEMB     21       PMPE     C31      CL       0.900000       12.0110           0
      2482 MEMB     21       PMPE     O32      OBL     -0.630000       15.9994           0
      2483 MEMB     21       PMPE     C32      CTL2    -0.220000       12.0110           0
      2484 MEMB     21       PMPE     H2X      HAL2     0.900000E-01   1.00800           0
      2485 MEMB     21       PMPE     H2Y      HAL2     0.900000E-01   1.00800           0
      2486 MEMB     21       PMPE     C23      CTL2    -0.180000       12.0110           0
      2487 MEMB     21       PMPE     H3R      HAL2     0.900000E-01   1.00800           0
      2488 MEMB     21       PMPE     H3S      HAL2     0.900000E-01   1.00800           0
      2489 MEMB     21       PMPE     C24      CTL2    -0.180000       12.0110           0
      2490 MEMB     21       PMPE     H4R      HAL2     0.900000E-01   1.00800           0
      2491 MEMB     21       PMPE     H4S      HAL2     0.900000E-01   1.00800           0
      2492 MEMB     21       PMPE     C25      CTL2    -0.180000       12.0110           0
      2493 MEMB     21       PMPE     H5R      HAL2     0.900000E-01   1.00800           0
      2494 MEMB     21       PMPE     H5S      HAL2     0.900000E-01   1.00800           0
      2495 MEMB     21       PMPE     C26      CTL2    -0.180000       12.0110           0
      2496 MEMB     21       PMPE     H6R      HAL2     0.900000E-01   1.00800           0
      2497 MEMB     21       PMPE     H6S      HAL2     0.900000E-01   1.00800           0
      2498 MEMB     21       PMPE     C27      CTL2    -0.180000       12.0110           0
      2499 MEMB     21       PMPE     H7R      HAL2     0.900000E-01   1.00800           0
      2500 MEMB     21       PMPE     H7S      HAL2     0.900000E-01   1.00800           0
      2501 MEMB     21       PMPE     C28      CTL2    -0.180000       12.0110           0
      2502 MEMB     21       PMPE     H8R      HAL2     0.900000E-01   1.00800           0
      2503 MEMB     21       PMPE     H8S      HAL2     0.900000E-01   1.00800           0
      2504 MEMB     21       PMPE     C29      CG3RC1  -0.900000E-01   12.0110           0
      2505 MEMB     21       PMPE     H9R      HGA1     0.900000E-01   1.00800           0
      2506 MEMB     21       PMPE     C217     CG3C31  -0.180000       12.0110           0
      2507 MEMB     21       PMPE     H17R     HGA2     0.900000E-01   1.00800           0
      2508 MEMB     21       PMPE     H17S     HGA2     0.900000E-01   1.00800           0
      2509 MEMB     21       PMPE     C210     CG3RC1  -0.900000E-01   12.0110           0
      2510 MEMB     21       PMPE     H10R     HGA1     0.900000E-01   1.00800           0
      2511 MEMB     21       PMPE     C211     CTL2    -0.180000       12.0110           0
      2512 MEMB     21       PMPE     H11R     HAL2     0.900000E-01   1.00800           0
      2513 MEMB     21       PMPE     H11S     HAL2     0.900000E-01   1.00800           0
      2514 MEMB     21       PMPE     C212     CTL2    -0.180000       12.0110           0
      2515 MEMB     21       PMPE     H12R     HAL2     0.900000E-01   1.00800           0
      2516 MEMB     21       PMPE     H12S     HAL2     0.900000E-01   1.00800           0
      2517 MEMB     21       PMPE     C213     CTL2    -0.180000       12.0110           0
      2518 MEMB     21       PMPE     H13R     HAL2     0.900000E-01   1.00800           0
      2519 MEMB     21       PMPE     H13S     HAL2     0.900000E-01   1.00800           0
      2520 MEMB     21       PMPE     C214     CTL2    -0.180000       12.0110           0
      2521 MEMB     21       PMPE     H14R     HAL2     0.900000E-01   1.00800           0
      2522 MEMB     21       PMPE     H14S     HAL2     0.900000E-01   1.00800           0
      2523 MEMB     21       PMPE     C215     CTL2    -0.180000       12.0110           0
      2524 MEMB     21       PMPE     H15R     HAL2     0.900000E-01   1.00800           0
      2525 MEMB     21       PMPE     H15S     HAL2     0.900000E-01   1.00800           0
      2526 MEMB     21       PMPE     C216     CTL3    -0.270000       12.0110           0
      2527 MEMB     21       PMPE     H16R     HAL3     0.900000E-01   1.00800           0
      2528 MEMB     21       PMPE     H16S     HAL3     0.900000E-01   1.00800           0
      2529 MEMB     21       PMPE     H16T     HAL3     0.900000E-01   1.00800           0
      2530 MEMB     21       PMPE     C33      CTL2    -0.180000       12.0110           0
      2531 MEMB     21       PMPE     H3X      HAL2     0.900000E-01   1.00800           0
      2532 MEMB     21       PMPE     H3Y      HAL2     0.900000E-01   1.00800           0
      2533 MEMB     21       PMPE     C34      CTL2    -0.180000       12.0110           0
      2534 MEMB     21       PMPE     H4X      HAL2     0.900000E-01   1.00800           0
      2535 MEMB     21       PMPE     H4Y      HAL2     0.900000E-01   1.00800           0
      2536 MEMB     21       PMPE     C35      CTL2    -0.180000       12.0110           0
      2537 MEMB     21       PMPE     H5X      HAL2     0.900000E-01   1.00800           0
      2538 MEMB     21       PMPE     H5Y      HAL2     0.900000E-01   1.00800           0
      2539 MEMB     21       PMPE     C36      CTL2    -0.180000       12.0110           0
      2540 MEMB     21       PMPE     H6X      HAL2     0.900000E-01   1.00800           0
      2541 MEMB     21       PMPE     H6Y      HAL2     0.900000E-01   1.00800           0
      2542 MEMB     21       PMPE     C37      CTL2    -0.180000       12.0110           0
      2543 MEMB     21       PMPE     H7X      HAL2     0.900000E-01   1.00800           0
      2544 MEMB     21       PMPE     H7Y      HAL2     0.900000E-01   1.00800           0
      2545 MEMB     21       PMPE     C38      CTL2    -0.180000       12.0110           0
      2546 MEMB     21       PMPE     H8X      HAL2     0.900000E-01   1.00800           0
      2547 MEMB     21       PMPE     H8Y      HAL2     0.900000E-01   1.00800           0
      2548 MEMB     21       PMPE     C39      CTL2    -0.180000       12.0110           0
      2549 MEMB     21       PMPE     H9X      HAL2     0.900000E-01   1.00800           0
      2550 MEMB     21       PMPE     H9Y      HAL2     0.900000E-01   1.00800           0
      2551 MEMB     21       PMPE     C310     CTL2    -0.180000       12.0110           0
      2552 MEMB     21       PMPE     H10X     HAL2     0.900000E-01   1.00800           0
      2553 MEMB     21       PMPE     H10Y     HAL2     0.900000E-01   1.00800           0
      2554 MEMB     21       PMPE     C311     CTL2    -0.180000       12.0110           0
      2555 MEMB     21       PMPE     H11X     HAL2     0.900000E-01   1.00800           0
      2556 MEMB     21       PMPE     H11Y     HAL2     0.900000E-01   1.00800           0
      2557 MEMB     21       PMPE     C312     CTL2    -0.180000       12.0110           0
      2558 MEMB     21       PMPE     H12X     HAL2     0.900000E-01   1.00800           0
      2559 MEMB     21       PMPE     H12Y     HAL2     0.900000E-01   1.00800           0
      2560 MEMB     21       PMPE     C313     CTL2    -0.180000       12.0110           0
      2561 MEMB     21       PMPE     H13X     HAL2     0.900000E-01   1.00800           0
      2562 MEMB     21       PMPE     H13Y     HAL2     0.900000E-01   1.00800           0
      2563 MEMB     21       PMPE     C314     CTL2    -0.180000       12.0110           0
      2564 MEMB     21       PMPE     H14X     HAL2     0.900000E-01   1.00800           0
      2565 MEMB     21       PMPE     H14Y     HAL2     0.900000E-01   1.00800           0
      2566 MEMB     21       PMPE     C315     CTL2    -0.180000       12.0110           0
      2567 MEMB     21       PMPE     H15X     HAL2     0.900000E-01   1.00800           0
      2568 MEMB     21       PMPE     H15Y     HAL2     0.900000E-01   1.00800           0
      2569 MEMB     21       PMPE     C316     CTL3    -0.270000       12.0110           0
      2570 MEMB     21       PMPE     H16X     HAL3     0.900000E-01   1.00800           0
      2571 MEMB     21       PMPE     H16Y     HAL3     0.900000E-01   1.00800           0
      2572 MEMB     21       PMPE     H16Z     HAL3     0.900000E-01   1.00800           0
      2573 MEMB     22       QMPE     N        NH3L    -0.300000       14.0070           0
      2574 MEMB     22       QMPE     HN1      HCL      0.330000       1.00800           0
      2575 MEMB     22       QMPE     HN2      HCL      0.330000       1.00800           0
      2576 MEMB     22       QMPE     HN3      HCL      0.330000       1.00800           0
      2577 MEMB     22       QMPE     C12      CTL2     0.130000       12.0110           0
      2578 MEMB     22       QMPE     H12A     HAL2     0.900000E-01   1.00800           0
      2579 MEMB     22       QMPE     H12B     HAL2     0.900000E-01   1.00800           0
      2580 MEMB     22       QMPE     C11      CTL2    -0.800000E-01   12.0110           0
      2581 MEMB     22       QMPE     H11A     HAL2     0.900000E-01   1.00800           0
      2582 MEMB     22       QMPE     H11B     HAL2     0.900000E-01   1.00800           0
      2583 MEMB     22       QMPE     P        PL        1.50000       30.9740           0
      2584 MEMB     22       QMPE     O13      O2L     -0.780000       15.9994           0
      2585 MEMB     22       QMPE     O14      O2L     -0.780000       15.9994           0
      2586 MEMB     22       QMPE     O11      OSLP    -0.570000       15.9994           0
      2587 MEMB     22       QMPE     O12      OSLP    -0.570000       15.9994           0
      2588 MEMB     22       QMPE     C1       CTL2    -0.800000E-01   12.0110           0
      2589 MEMB     22       QMPE     HA       HAL2     0.900000E-01   1.00800           0
      2590 MEMB     22       QMPE     HB       HAL2     0.900000E-01   1.00800           0
      2591 MEMB     22       QMPE     C2       CTL1     0.170000       12.0110           0
      2592 MEMB     22       QMPE     HS       HAL1     0.900000E-01   1.00800           0
      2593 MEMB     22       QMPE     O21      OSL     -0.490000       15.9994           0
      2594 MEMB     22       QMPE     C21      CL       0.900000       12.0110           0
      2595 MEMB     22       QMPE     O22      OBL     -0.630000       15.9994           0
      2596 MEMB     22       QMPE     C22      CTL2    -0.220000       12.0110           0
      2597 MEMB     22       QMPE     H2R      HAL2     0.900000E-01   1.00800           0
      2598 MEMB     22       QMPE     H2S      HAL2     0.900000E-01   1.00800           0
      2599 MEMB     22       QMPE     C3       CTL2     0.800000E-01   12.0110           0
      2600 MEMB     22       QMPE     HX       HAL2     0.900000E-01   1.00800           0
      2601 MEMB     22       QMPE     HY       HAL2     0.900000E-01   1.00800           0
      2602 MEMB     22       QMPE     O31      OSL     -0.490000       15.9994           0
      2603 MEMB     22       QMPE     C31      CL       0.900000       12.0110           0
      2604 MEMB     22       QMPE     O32      OBL     -0.630000       15.9994           0
      2605 MEMB     22       QMPE     C32      CTL2    -0.220000       12.0110           0
      2606 MEMB     22       QMPE     H2X      HAL2     0.900000E-01   1.00800           0
      2607 MEMB     22       QMPE     H2Y      HAL2     0.900000E-01   1.00800           0
      2608 MEMB     22       QMPE     C23      CTL2    -0.180000       12.0110           0
      2609 MEMB     22       QMPE     H3R      HAL2     0.900000E-01   1.00800           0
      2610 MEMB     22       QMPE     H3S      HAL2     0.900000E-01   1.00800           0
      2611 MEMB     22       QMPE     C24      CTL2    -0.180000       12.0110           0
      2612 MEMB     22       QMPE     H4R      HAL2     0.900000E-01   1.00800           0
      2613 MEMB     22       QMPE     H4S      HAL2     0.900000E-01   1.00800           0
      2614 MEMB     22       QMPE     C25      CTL2    -0.180000       12.0110           0
      2615 MEMB     22       QMPE     H5R      HAL2     0.900000E-01   1.00800           0
      2616 MEMB     22       QMPE     H5S      HAL2     0.900000E-01   1.00800           0
      2617 MEMB     22       QMPE     C26      CTL2    -0.180000       12.0110           0
      2618 MEMB     22       QMPE     H6R      HAL2     0.900000E-01   1.00800           0
      2619 MEMB     22       QMPE     H6S      HAL2     0.900000E-01   1.00800           0
      2620 MEMB     22       QMPE     C27      CTL2    -0.180000       12.0110           0
      2621 MEMB     22       QMPE     H7R      HAL2     0.900000E-01   1.00800           0
      2622 MEMB     22       QMPE     H7S      HAL2     0.900000E-01   1.00800           0
      2623 MEMB     22       QMPE     C28      CTL2    -0.180000       12.0110           0
      2624 MEMB     22       QMPE     H8R      HAL2     0.900000E-01   1.00800           0
      2625 MEMB     22       QMPE     H8S      HAL2     0.900000E-01   1.00800           0
      2626 MEMB     22       QMPE     C29      CG3RC1  -0.900000E-01   12.0110           0
      2627 MEMB     22       QMPE     H9R      HGA1     0.900000E-01   1.00800           0
      2628 MEMB     22       QMPE     C217     CG3C31  -0.180000       12.0110           0
      2629 MEMB     22       QMPE     H17R     HGA2     0.900000E-01   1.00800           0
      2630 MEMB     22       QMPE     H17S     HGA2     0.900000E-01   1.00800           0
      2631 MEMB     22       QMPE     C210     CG3RC1  -0.900000E-01   12.0110           0
      2632 MEMB     22       QMPE     H10R     HGA1     0.900000E-01   1.00800           0
      2633 MEMB     22       QMPE     C211     CTL2    -0.180000       12.0110           0
      2634 MEMB     22       QMPE     H11R     HAL2     0.900000E-01   1.00800           0
      2635 MEMB     22       QMPE     H11S     HAL2     0.900000E-01   1.00800           0
      2636 MEMB     22       QMPE     C212     CTL2    -0.180000       12.0110           0
      2637 MEMB     22       QMPE     H12R     HAL2     0.900000E-01   1.00800           0
      2638 MEMB     22       QMPE     H12S     HAL2     0.900000E-01   1.00800           0
      2639 MEMB     22       QMPE     C213     CTL2    -0.180000       12.0110           0
      2640 MEMB     22       QMPE     H13R     HAL2     0.900000E-01   1.00800           0
      2641 MEMB     22       QMPE     H13S     HAL2     0.900000E-01   1.00800           0
      2642 MEMB     22       QMPE     C214     CTL2    -0.180000       12.0110           0
      2643 MEMB     22       QMPE     H14R     HAL2     0.900000E-01   1.00800           0
      2644 MEMB     22       QMPE     H14S     HAL2     0.900000E-01   1.00800           0
      2645 MEMB     22       QMPE     C215     CTL2    -0.180000       12.0110           0
      2646 MEMB     22       QMPE     H15R     HAL2     0.900000E-01   1.00800           0
      2647 MEMB     22       QMPE     H15S     HAL2     0.900000E-01   1.00800           0
      2648 MEMB     22       QMPE     C216     CTL3    -0.270000       12.0110           0
      2649 MEMB     22       QMPE     H16R     HAL3     0.900000E-01   1.00800           0
      2650 MEMB     22       QMPE     H16S     HAL3     0.900000E-01   1.00800           0
      2651 MEMB     22       QMPE     H16T     HAL3     0.900000E-01   1.00800           0
      2652 MEMB     22       QMPE     C33      CTL2    -0.180000       12.0110           0
      2653 MEMB     22       QMPE     H3X      HAL2     0.900000E-01   1.00800           0
      2654 MEMB     22       QMPE     H3Y      HAL2     0.900000E-01   1.00800           0
      2655 MEMB     22       QMPE     C34      CTL2    -0.180000       12.0110           0
      2656 MEMB     22       QMPE     H4X      HAL2     0.900000E-01   1.00800           0
      2657 MEMB     22       QMPE     H4Y      HAL2     0.900000E-01   1.00800           0
      2658 MEMB     22       QMPE     C35      CTL2    -0.180000       12.0110           0
      2659 MEMB     22       QMPE     H5X      HAL2     0.900000E-01   1.00800           0
      2660 MEMB     22       QMPE     H5Y      HAL2     0.900000E-01   1.00800           0
      2661 MEMB     22       QMPE     C36      CTL2    -0.180000       12.0110           0
      2662 MEMB     22       QMPE     H6X      HAL2     0.900000E-01   1.00800           0
      2663 MEMB     22       QMPE     H6Y      HAL2     0.900000E-01   1.00800           0
      2664 MEMB     22       QMPE     C37      CTL2    -0.180000       12.0110           0
      2665 MEMB     22       QMPE     H7X      HAL2     0.900000E-01   1.00800           0
      2666 MEMB     22       QMPE     H7Y      HAL2     0.900000E-01   1.00800           0
      2667 MEMB     22       QMPE     C38      CTL2    -0.180000       12.0110           0
      2668 MEMB     22       QMPE     H8X      HAL2     0.900000E-01   1.00800           0
      2669 MEMB     22       QMPE     H8Y      HAL2     0.900000E-01   1.00800           0
      2670 MEMB     22       QMPE     C39      CTL2    -0.180000       12.0110           0
      2671 MEMB     22       QMPE     H9X      HAL2     0.900000E-01   1.00800           0
      2672 MEMB     22       QMPE     H9Y      HAL2     0.900000E-01   1.00800           0
      2673 MEMB     22       QMPE     C310     CTL2    -0.180000       12.0110           0
      2674 MEMB     22       QMPE     H10X     HAL2     0.900000E-01   1.00800           0
      2675 MEMB     22       QMPE     H10Y     HAL2     0.900000E-01   1.00800           0
      2676 MEMB     22       QMPE     C311     CTL2    -0.180000       12.0110           0
      2677 MEMB     22       QMPE     H11X     HAL2     0.900000E-01   1.00800           0
      2678 MEMB     22       QMPE     H11Y     HAL2     0.900000E-01   1.00800           0
      2679 MEMB     22       QMPE     C312     CTL2    -0.180000       12.0110           0
      2680 MEMB     22       QMPE     H12X     HAL2     0.900000E-01   1.00800           0
      2681 MEMB     22       QMPE     H12Y     HAL2     0.900000E-01   1.00800           0
      2682 MEMB     22       QMPE     C313     CTL2    -0.180000       12.0110           0
      2683 MEMB     22       QMPE     H13X     HAL2     0.900000E-01   1.00800           0
      2684 MEMB     22       QMPE     H13Y     HAL2     0.900000E-01   1.00800           0
      2685 MEMB     22       QMPE     C314     CTL2    -0.180000       12.0110           0
      2686 MEMB     22       QMPE     H14X     HAL2     0.900000E-01   1.00800           0
      2687 MEMB     22       QMPE     H14Y     HAL2     0.900000E-01   1.00800           0
      2688 MEMB     22       QMPE     C315     CTL3    -0.270000       12.0110           0
      2689 MEMB     22       QMPE     H15X     HAL3     0.900000E-01   1.00800           0
      2690 MEMB     22       QMPE     H15Y     HAL3     0.900000E-01   1.00800           0
      2691 MEMB     22       QMPE     H15Z     HAL3     0.900000E-01   1.00800           0
      2692 MEMB     23       QMPE     N        NH3L    -0.300000       14.0070           0
      2693 MEMB     23       QMPE     HN1      HCL      0.330000       1.00800           0
      2694 MEMB     23       QMPE     HN2      HCL      0.330000       1.00800           0
      2695 MEMB     23       QMPE     HN3      HCL      0.330000       1.00800           0
      2696 MEMB     23       QMPE     C12      CTL2     0.130000       12.0110           0
      2697 MEMB     23       QMPE     H12A     HAL2     0.900000E-01   1.00800           0
      2698 MEMB     23       QMPE     H12B     HAL2     0.900000E-01   1.00800           0
      2699 MEMB     23       QMPE     C11      CTL2    -0.800000E-01   12.0110           0
      2700 MEMB     23       QMPE     H11A     HAL2     0.900000E-01   1.00800           0
      2701 MEMB     23       QMPE     H11B     HAL2     0.900000E-01   1.00800           0
      2702 MEMB     23       QMPE     P        PL        1.50000       30.9740           0
      2703 MEMB     23       QMPE     O13      O2L     -0.780000       15.9994           0
      2704 MEMB     23       QMPE     O14      O2L     -0.780000       15.9994           0
      2705 MEMB     23       QMPE     O11      OSLP    -0.570000       15.9994           0
      2706 MEMB     23       QMPE     O12      OSLP    -0.570000       15.9994           0
      2707 MEMB     23       QMPE     C1       CTL2    -0.800000E-01   12.0110           0
      2708 MEMB     23       QMPE     HA       HAL2     0.900000E-01   1.00800           0
      2709 MEMB     23       QMPE     HB       HAL2     0.900000E-01   1.00800           0
      2710 MEMB     23       QMPE     C2       CTL1     0.170000       12.0110           0
      2711 MEMB     23       QMPE     HS       HAL1     0.900000E-01   1.00800           0
      2712 MEMB     23       QMPE     O21      OSL     -0.490000       15.9994           0
      2713 MEMB     23       QMPE     C21      CL       0.900000       12.0110           0
      2714 MEMB     23       QMPE     O22      OBL     -0.630000       15.9994           0
      2715 MEMB     23       QMPE     C22      CTL2    -0.220000       12.0110           0
      2716 MEMB     23       QMPE     H2R      HAL2     0.900000E-01   1.00800           0
      2717 MEMB     23       QMPE     H2S      HAL2     0.900000E-01   1.00800           0
      2718 MEMB     23       QMPE     C3       CTL2     0.800000E-01   12.0110           0
      2719 MEMB     23       QMPE     HX       HAL2     0.900000E-01   1.00800           0
      2720 MEMB     23       QMPE     HY       HAL2     0.900000E-01   1.00800           0
      2721 MEMB     23       QMPE     O31      OSL     -0.490000       15.9994           0
      2722 MEMB     23       QMPE     C31      CL       0.900000       12.0110           0
      2723 MEMB     23       QMPE     O32      OBL     -0.630000       15.9994           0
      2724 MEMB     23       QMPE     C32      CTL2    -0.220000       12.0110           0
      2725 MEMB     23       QMPE     H2X      HAL2     0.900000E-01   1.00800           0
      2726 MEMB     23       QMPE     H2Y      HAL2     0.900000E-01   1.00800           0
      2727 MEMB     23       QMPE     C23      CTL2    -0.180000       12.0110           0
      2728 MEMB     23       QMPE     H3R      HAL2     0.900000E-01   1.00800           0
      2729 MEMB     23       QMPE     H3S      HAL2     0.900000E-01   1.00800           0
      2730 MEMB     23       QMPE     C24      CTL2    -0.180000       12.0110           0
      2731 MEMB     23       QMPE     H4R      HAL2     0.900000E-01   1.00800           0
      2732 MEMB     23       QMPE     H4S      HAL2     0.900000E-01   1.00800           0
      2733 MEMB     23       QMPE     C25      CTL2    -0.180000       12.0110           0
      2734 MEMB     23       QMPE     H5R      HAL2     0.900000E-01   1.00800           0
      2735 MEMB     23       QMPE     H5S      HAL2     0.900000E-01   1.00800           0
      2736 MEMB     23       QMPE     C26      CTL2    -0.180000       12.0110           0
      2737 MEMB     23       QMPE     H6R      HAL2     0.900000E-01   1.00800           0
      2738 MEMB     23       QMPE     H6S      HAL2     0.900000E-01   1.00800           0
      2739 MEMB     23       QMPE     C27      CTL2    -0.180000       12.0110           0
      2740 MEMB     23       QMPE     H7R      HAL2     0.900000E-01   1.00800           0
      2741 MEMB     23       QMPE     H7S      HAL2     0.900000E-01   1.00800           0
      2742 MEMB     23       QMPE     C28      CTL2    -0.180000       12.0110           0
      2743 MEMB     23       QMPE     H8R      HAL2     0.900000E-01   1.00800           0
      2744 MEMB     23       QMPE     H8S      HAL2     0.900000E-01   1.00800           0
      2745 MEMB     23       QMPE     C29      CG3RC1  -0.900000E-01   12.0110           0
      2746 MEMB     23       QMPE     H9R      HGA1     0.900000E-01   1.00800           0
      2747 MEMB     23       QMPE     C217     CG3C31  -0.180000       12.0110           0
      2748 MEMB     23       QMPE     H17R     HGA2     0.900000E-01   1.00800           0
      2749 MEMB     23       QMPE     H17S     HGA2     0.900000E-01   1.00800           0
      2750 MEMB     23       QMPE     C210     CG3RC1  -0.900000E-01   12.0110           0
      2751 MEMB     23       QMPE     H10R     HGA1     0.900000E-01   1.00800           0
      2752 MEMB     23       QMPE     C211     CTL2    -0.180000       12.0110           0
      2753 MEMB     23       QMPE     H11R     HAL2     0.900000E-01   1.00800           0
      2754 MEMB     23       QMPE     H11S     HAL2     0.900000E-01   1.00800           0
      2755 MEMB     23       QMPE     C212     CTL2    -0.180000       12.0110           0
      2756 MEMB     23       QMPE     H12R     HAL2     0.900000E-01   1.00800           0
      2757 MEMB     23       QMPE     H12S     HAL2     0.900000E-01   1.00800           0
      2758 MEMB     23       QMPE     C213     CTL2    -0.180000       12.0110           0
      2759 MEMB     23       QMPE     H13R     HAL2     0.900000E-01   1.00800           0
      2760 MEMB     23       QMPE     H13S     HAL2     0.900000E-01   1.00800           0
      2761 MEMB     23       QMPE     C214     CTL2    -0.180000       12.0110           0
      2762 MEMB     23       QMPE     H14R     HAL2     0.900000E-01   1.00800           0
      2763 MEMB     23       QMPE     H14S     HAL2     0.900000E-01   1.00800           0
      2764 MEMB     23       QMPE     C215     CTL2    -0.180000       12.0110           0
      2765 MEMB     23       QMPE     H15R     HAL2     0.900000E-01   1.00800           0
      2766 MEMB     23       QMPE     H15S     HAL2     0.900000E-01   1.00800           0
      2767 MEMB     23       QMPE     C216     CTL3    -0.270000       12.0110           0
      2768 MEMB     23       QMPE     H16R     HAL3     0.900000E-01   1.00800           0
      2769 MEMB     23       QMPE     H16S     HAL3     0.900000E-01   1.00800           0
      2770 MEMB     23       QMPE     H16T     HAL3     0.900000E-01   1.00800           0
      2771 MEMB     23       QMPE     C33      CTL2    -0.180000       12.0110           0
      2772 MEMB     23       QMPE     H3X      HAL2     0.900000E-01   1.00800           0
      2773 MEMB     23       QMPE     H3Y      HAL2     0.900000E-01   1.00800           0
      2774 MEMB     23       QMPE     C34      CTL2    -0.180000       12.0110           0
      2775 MEMB     23       QMPE     H4X      HAL2     0.900000E-01   1.00800           0
      2776 MEMB     23       QMPE     H4Y      HAL2     0.900000E-01   1.00800           0
      2777 MEMB     23       QMPE     C35      CTL2    -0.180000       12.0110           0
      2778 MEMB     23       QMPE     H5X      HAL2     0.900000E-01   1.00800           0
      2779 MEMB     23       QMPE     H5Y      HAL2     0.900000E-01   1.00800           0
      2780 MEMB     23       QMPE     C36      CTL2    -0.180000       12.0110           0
      2781 MEMB     23       QMPE     H6X      HAL2     0.900000E-01   1.00800           0
      2782 MEMB     23       QMPE     H6Y      HAL2     0.900000E-01   1.00800           0
      2783 MEMB     23       QMPE     C37      CTL2    -0.180000       12.0110           0
      2784 MEMB     23       QMPE     H7X      HAL2     0.900000E-01   1.00800           0
      2785 MEMB     23       QMPE     H7Y      HAL2     0.900000E-01   1.00800           0
      2786 MEMB     23       QMPE     C38      CTL2    -0.180000       12.0110           0
      2787 MEMB     23       QMPE     H8X      HAL2     0.900000E-01   1.00800           0
      2788 MEMB     23       QMPE     H8Y      HAL2     0.900000E-01   1.00800           0
      2789 MEMB     23       QMPE     C39      CTL2    -0.180000       12.0110           0
      2790 MEMB     23       QMPE     H9X      HAL2     0.900000E-01   1.00800           0
      2791 MEMB     23       QMPE     H9Y      HAL2     0.900000E-01   1.00800           0
      2792 MEMB     23       QMPE     C310     CTL2    -0.180000       12.0110           0
      2793 MEMB     23       QMPE     H10X     HAL2     0.900000E-01   1.00800           0
      2794 MEMB     23       QMPE     H10Y     HAL2     0.900000E-01   1.00800           0
      2795 MEMB     23       QMPE     C311     CTL2    -0.180000       12.0110           0
      2796 MEMB     23       QMPE     H11X     HAL2     0.900000E-01   1.00800           0
      2797 MEMB     23       QMPE     H11Y     HAL2     0.900000E-01   1.00800           0
      2798 MEMB     23       QMPE     C312     CTL2    -0.180000       12.0110           0
      2799 MEMB     23       QMPE     H12X     HAL2     0.900000E-01   1.00800           0
      2800 MEMB     23       QMPE     H12Y     HAL2     0.900000E-01   1.00800           0
      2801 MEMB     23       QMPE     C313     CTL2    -0.180000       12.0110           0
      2802 MEMB     23       QMPE     H13X     HAL2     0.900000E-01   1.00800           0
      2803 MEMB     23       QMPE     H13Y     HAL2     0.900000E-01   1.00800           0
      2804 MEMB     23       QMPE     C314     CTL2    -0.180000       12.0110           0
      2805 MEMB     23       QMPE     H14X     HAL2     0.900000E-01   1.00800           0
      2806 MEMB     23       QMPE     H14Y     HAL2     0.900000E-01   1.00800           0
      2807 MEMB     23       QMPE     C315     CTL3    -0.270000       12.0110           0
      2808 MEMB     23       QMPE     H15X     HAL3     0.900000E-01   1.00800           0
      2809 MEMB     23       QMPE     H15Y     HAL3     0.900000E-01   1.00800           0
      2810 MEMB     23       QMPE     H15Z     HAL3     0.900000E-01   1.00800           0
      2811 MEMB     24       PYPG     C13      CTL2     0.500000E-01   12.0110           0
      2812 MEMB     24       PYPG     H13A     HAL2     0.900000E-01   1.00800           0
      2813 MEMB     24       PYPG     H13B     HAL2     0.900000E-01   1.00800           0
      2814 MEMB     24       PYPG     OC3      OHL     -0.660000       15.9994           0
      2815 MEMB     24       PYPG     HO3      HOL      0.430000       1.00800           0
      2816 MEMB     24       PYPG     C12      CTL1     0.140000       12.0110           0
      2817 MEMB     24       PYPG     H12A     HAL1     0.900000E-01   1.00800           0
      2818 MEMB     24       PYPG     OC2      OHL     -0.660000       15.9994           0
      2819 MEMB     24       PYPG     HO2      HOL      0.430000       1.00800           0
      2820 MEMB     24       PYPG     C11      CTL2    -0.800000E-01   12.0110           0
      2821 MEMB     24       PYPG     H11A     HAL2     0.900000E-01   1.00800           0
      2822 MEMB     24       PYPG     H11B     HAL2     0.900000E-01   1.00800           0
      2823 MEMB     24       PYPG     P        PL        1.50000       30.9740           0
      2824 MEMB     24       PYPG     O13      O2L     -0.780000       15.9994           0
      2825 MEMB     24       PYPG     O14      O2L     -0.780000       15.9994           0
      2826 MEMB     24       PYPG     O11      OSLP    -0.570000       15.9994           0
      2827 MEMB     24       PYPG     O12      OSLP    -0.570000       15.9994           0
      2828 MEMB     24       PYPG     C1       CTL2    -0.800000E-01   12.0110           0
      2829 MEMB     24       PYPG     HA       HAL2     0.900000E-01   1.00800           0
      2830 MEMB     24       PYPG     HB       HAL2     0.900000E-01   1.00800           0
      2831 MEMB     24       PYPG     C2       CTL1     0.170000       12.0110           0
      2832 MEMB     24       PYPG     HS       HAL1     0.900000E-01   1.00800           0
      2833 MEMB     24       PYPG     O21      OSL     -0.490000       15.9994           0
      2834 MEMB     24       PYPG     C21      CL       0.900000       12.0110           0
      2835 MEMB     24       PYPG     O22      OBL     -0.630000       15.9994           0
      2836 MEMB     24       PYPG     C22      CTL2    -0.220000       12.0110           0
      2837 MEMB     24       PYPG     H2R      HAL2     0.900000E-01   1.00800           0
      2838 MEMB     24       PYPG     H2S      HAL2     0.900000E-01   1.00800           0
      2839 MEMB     24       PYPG     C3       CTL2     0.800000E-01   12.0110           0
      2840 MEMB     24       PYPG     HX       HAL2     0.900000E-01   1.00800           0
      2841 MEMB     24       PYPG     HY       HAL2     0.900000E-01   1.00800           0
      2842 MEMB     24       PYPG     O31      OSL     -0.490000       15.9994           0
      2843 MEMB     24       PYPG     C31      CL       0.900000       12.0110           0
      2844 MEMB     24       PYPG     O32      OBL     -0.630000       15.9994           0
      2845 MEMB     24       PYPG     C32      CTL2    -0.220000       12.0110           0
      2846 MEMB     24       PYPG     H2X      HAL2     0.900000E-01   1.00800           0
      2847 MEMB     24       PYPG     H2Y      HAL2     0.900000E-01   1.00800           0
      2848 MEMB     24       PYPG     C23      CTL2    -0.180000       12.0110           0
      2849 MEMB     24       PYPG     H3R      HAL2     0.900000E-01   1.00800           0
      2850 MEMB     24       PYPG     H3S      HAL2     0.900000E-01   1.00800           0
      2851 MEMB     24       PYPG     C24      CTL2    -0.180000       12.0110           0
      2852 MEMB     24       PYPG     H4R      HAL2     0.900000E-01   1.00800           0
      2853 MEMB     24       PYPG     H4S      HAL2     0.900000E-01   1.00800           0
      2854 MEMB     24       PYPG     C25      CTL2    -0.180000       12.0110           0
      2855 MEMB     24       PYPG     H5R      HAL2     0.900000E-01   1.00800           0
      2856 MEMB     24       PYPG     H5S      HAL2     0.900000E-01   1.00800           0
      2857 MEMB     24       PYPG     C26      CTL2    -0.180000       12.0110           0
      2858 MEMB     24       PYPG     H6R      HAL2     0.900000E-01   1.00800           0
      2859 MEMB     24       PYPG     H6S      HAL2     0.900000E-01   1.00800           0
      2860 MEMB     24       PYPG     C27      CTL2    -0.180000       12.0110           0
      2861 MEMB     24       PYPG     H7R      HAL2     0.900000E-01   1.00800           0
      2862 MEMB     24       PYPG     H7S      HAL2     0.900000E-01   1.00800           0
      2863 MEMB     24       PYPG     C28      CTL2    -0.180000       12.0110           0
      2864 MEMB     24       PYPG     H8R      HAL2     0.900000E-01   1.00800           0
      2865 MEMB     24       PYPG     H8S      HAL2     0.900000E-01   1.00800           0
      2866 MEMB     24       PYPG     C29      CEL1    -0.150000       12.0110           0
      2867 MEMB     24       PYPG     H9R      HEL1     0.150000       1.00800           0
      2868 MEMB     24       PYPG     C210     CEL1    -0.150000       12.0110           0
      2869 MEMB     24       PYPG     H10R     HEL1     0.150000       1.00800           0
      2870 MEMB     24       PYPG     C211     CTL2    -0.180000       12.0110           0
      2871 MEMB     24       PYPG     H11R     HAL2     0.900000E-01   1.00800           0
      2872 MEMB     24       PYPG     H11S     HAL2     0.900000E-01   1.00800           0
      2873 MEMB     24       PYPG     C212     CTL2    -0.180000       12.0110           0
      2874 MEMB     24       PYPG     H12R     HAL2     0.900000E-01   1.00800           0
      2875 MEMB     24       PYPG     H12S     HAL2     0.900000E-01   1.00800           0
      2876 MEMB     24       PYPG     C213     CTL2    -0.180000       12.0110           0
      2877 MEMB     24       PYPG     H13R     HAL2     0.900000E-01   1.00800           0
      2878 MEMB     24       PYPG     H13S     HAL2     0.900000E-01   1.00800           0
      2879 MEMB     24       PYPG     C214     CTL2    -0.180000       12.0110           0
      2880 MEMB     24       PYPG     H14R     HAL2     0.900000E-01   1.00800           0
      2881 MEMB     24       PYPG     H14S     HAL2     0.900000E-01   1.00800           0
      2882 MEMB     24       PYPG     C215     CTL2    -0.180000       12.0110           0
      2883 MEMB     24       PYPG     H15R     HAL2     0.900000E-01   1.00800           0
      2884 MEMB     24       PYPG     H15S     HAL2     0.900000E-01   1.00800           0
      2885 MEMB     24       PYPG     C216     CTL3    -0.270000       12.0110           0
      2886 MEMB     24       PYPG     H16R     HAL3     0.900000E-01   1.00800           0
      2887 MEMB     24       PYPG     H16S     HAL3     0.900000E-01   1.00800           0
      2888 MEMB     24       PYPG     H16T     HAL3     0.900000E-01   1.00800           0
      2889 MEMB     24       PYPG     C33      CTL2    -0.180000       12.0110           0
      2890 MEMB     24       PYPG     H3X      HAL2     0.900000E-01   1.00800           0
      2891 MEMB     24       PYPG     H3Y      HAL2     0.900000E-01   1.00800           0
      2892 MEMB     24       PYPG     C34      CTL2    -0.180000       12.0110           0
      2893 MEMB     24       PYPG     H4X      HAL2     0.900000E-01   1.00800           0
      2894 MEMB     24       PYPG     H4Y      HAL2     0.900000E-01   1.00800           0
      2895 MEMB     24       PYPG     C35      CTL2    -0.180000       12.0110           0
      2896 MEMB     24       PYPG     H5X      HAL2     0.900000E-01   1.00800           0
      2897 MEMB     24       PYPG     H5Y      HAL2     0.900000E-01   1.00800           0
      2898 MEMB     24       PYPG     C36      CTL2    -0.180000       12.0110           0
      2899 MEMB     24       PYPG     H6X      HAL2     0.900000E-01   1.00800           0
      2900 MEMB     24       PYPG     H6Y      HAL2     0.900000E-01   1.00800           0
      2901 MEMB     24       PYPG     C37      CTL2    -0.180000       12.0110           0
      2902 MEMB     24       PYPG     H7X      HAL2     0.900000E-01   1.00800           0
      2903 MEMB     24       PYPG     H7Y      HAL2     0.900000E-01   1.00800           0
      2904 MEMB     24       PYPG     C38      CTL2    -0.180000       12.0110           0
      2905 MEMB     24       PYPG     H8X      HAL2     0.900000E-01   1.00800           0
      2906 MEMB     24       PYPG     H8Y      HAL2     0.900000E-01   1.00800           0
      2907 MEMB     24       PYPG     C39      CTL2    -0.180000       12.0110           0
      2908 MEMB     24       PYPG     H9X      HAL2     0.900000E-01   1.00800           0
      2909 MEMB     24       PYPG     H9Y      HAL2     0.900000E-01   1.00800           0
      2910 MEMB     24       PYPG     C310     CTL2    -0.180000       12.0110           0
      2911 MEMB     24       PYPG     H10X     HAL2     0.900000E-01   1.00800           0
      2912 MEMB     24       PYPG     H10Y     HAL2     0.900000E-01   1.00800           0
      2913 MEMB     24       PYPG     C311     CTL2    -0.180000       12.0110           0
      2914 MEMB     24       PYPG     H11X     HAL2     0.900000E-01   1.00800           0
      2915 MEMB     24       PYPG     H11Y     HAL2     0.900000E-01   1.00800           0
      2916 MEMB     24       PYPG     C312     CTL2    -0.180000       12.0110           0
      2917 MEMB     24       PYPG     H12X     HAL2     0.900000E-01   1.00800           0
      2918 MEMB     24       PYPG     H12Y     HAL2     0.900000E-01   1.00800           0
      2919 MEMB     24       PYPG     C313     CTL2    -0.180000       12.0110           0
      2920 MEMB     24       PYPG     H13X     HAL2     0.900000E-01   1.00800           0
      2921 MEMB     24       PYPG     H13Y     HAL2     0.900000E-01   1.00800           0
      2922 MEMB     24       PYPG     C314     CTL2    -0.180000       12.0110           0
      2923 MEMB     24       PYPG     H14X     HAL2     0.900000E-01   1.00800           0
      2924 MEMB     24       PYPG     H14Y     HAL2     0.900000E-01   1.00800           0
      2925 MEMB     24       PYPG     C315     CTL2    -0.180000       12.0110           0
      2926 MEMB     24       PYPG     H15X     HAL2     0.900000E-01   1.00800           0
      2927 MEMB     24       PYPG     H15Y     HAL2     0.900000E-01   1.00800           0
      2928 MEMB     24       PYPG     C316     CTL3    -0.270000       12.0110           0
      2929 MEMB     24       PYPG     H16X     HAL3     0.900000E-01   1.00800           0
      2930 MEMB     24       PYPG     H16Y     HAL3     0.900000E-01   1.00800           0
      2931 MEMB     24       PYPG     H16Z     HAL3     0.900000E-01   1.00800           0
      2932 MEMB     25       PMPE     N        NH3L    -0.300000       14.0070           0
      2933 MEMB     25       PMPE     HN1      HCL      0.330000       1.00800           0
      2934 MEMB     25       PMPE     HN2      HCL      0.330000       1.00800           0
      2935 MEMB     25       PMPE     HN3      HCL      0.330000       1.00800           0
      2936 MEMB     25       PMPE     C12      CTL2     0.130000       12.0110           0
      2937 MEMB     25       PMPE     H12A     HAL2     0.900000E-01   1.00800           0
      2938 MEMB     25       PMPE     H12B     HAL2     0.900000E-01   1.00800           0
      2939 MEMB     25       PMPE     C11      CTL2    -0.800000E-01   12.0110           0
      2940 MEMB     25       PMPE     H11A     HAL2     0.900000E-01   1.00800           0
      2941 MEMB     25       PMPE     H11B     HAL2     0.900000E-01   1.00800           0
      2942 MEMB     25       PMPE     P        PL        1.50000       30.9740           0
      2943 MEMB     25       PMPE     O13      O2L     -0.780000       15.9994           0
      2944 MEMB     25       PMPE     O14      O2L     -0.780000       15.9994           0
      2945 MEMB     25       PMPE     O11      OSLP    -0.570000       15.9994           0
      2946 MEMB     25       PMPE     O12      OSLP    -0.570000       15.9994           0
      2947 MEMB     25       PMPE     C1       CTL2    -0.800000E-01   12.0110           0
      2948 MEMB     25       PMPE     HA       HAL2     0.900000E-01   1.00800           0
      2949 MEMB     25       PMPE     HB       HAL2     0.900000E-01   1.00800           0
      2950 MEMB     25       PMPE     C2       CTL1     0.170000       12.0110           0
      2951 MEMB     25       PMPE     HS       HAL1     0.900000E-01   1.00800           0
      2952 MEMB     25       PMPE     O21      OSL     -0.490000       15.9994           0
      2953 MEMB     25       PMPE     C21      CL       0.900000       12.0110           0
      2954 MEMB     25       PMPE     O22      OBL     -0.630000       15.9994           0
      2955 MEMB     25       PMPE     C22      CTL2    -0.220000       12.0110           0
      2956 MEMB     25       PMPE     H2R      HAL2     0.900000E-01   1.00800           0
      2957 MEMB     25       PMPE     H2S      HAL2     0.900000E-01   1.00800           0
      2958 MEMB     25       PMPE     C3       CTL2     0.800000E-01   12.0110           0
      2959 MEMB     25       PMPE     HX       HAL2     0.900000E-01   1.00800           0
      2960 MEMB     25       PMPE     HY       HAL2     0.900000E-01   1.00800           0
      2961 MEMB     25       PMPE     O31      OSL     -0.490000       15.9994           0
      2962 MEMB     25       PMPE     C31      CL       0.900000       12.0110           0
      2963 MEMB     25       PMPE     O32      OBL     -0.630000       15.9994           0
      2964 MEMB     25       PMPE     C32      CTL2    -0.220000       12.0110           0
      2965 MEMB     25       PMPE     H2X      HAL2     0.900000E-01   1.00800           0
      2966 MEMB     25       PMPE     H2Y      HAL2     0.900000E-01   1.00800           0
      2967 MEMB     25       PMPE     C23      CTL2    -0.180000       12.0110           0
      2968 MEMB     25       PMPE     H3R      HAL2     0.900000E-01   1.00800           0
      2969 MEMB     25       PMPE     H3S      HAL2     0.900000E-01   1.00800           0
      2970 MEMB     25       PMPE     C24      CTL2    -0.180000       12.0110           0
      2971 MEMB     25       PMPE     H4R      HAL2     0.900000E-01   1.00800           0
      2972 MEMB     25       PMPE     H4S      HAL2     0.900000E-01   1.00800           0
      2973 MEMB     25       PMPE     C25      CTL2    -0.180000       12.0110           0
      2974 MEMB     25       PMPE     H5R      HAL2     0.900000E-01   1.00800           0
      2975 MEMB     25       PMPE     H5S      HAL2     0.900000E-01   1.00800           0
      2976 MEMB     25       PMPE     C26      CTL2    -0.180000       12.0110           0
      2977 MEMB     25       PMPE     H6R      HAL2     0.900000E-01   1.00800           0
      2978 MEMB     25       PMPE     H6S      HAL2     0.900000E-01   1.00800           0
      2979 MEMB     25       PMPE     C27      CTL2    -0.180000       12.0110           0
      2980 MEMB     25       PMPE     H7R      HAL2     0.900000E-01   1.00800           0
      2981 MEMB     25       PMPE     H7S      HAL2     0.900000E-01   1.00800           0
      2982 MEMB     25       PMPE     C28      CTL2    -0.180000       12.0110           0
      2983 MEMB     25       PMPE     H8R      HAL2     0.900000E-01   1.00800           0
      2984 MEMB     25       PMPE     H8S      HAL2     0.900000E-01   1.00800           0
      2985 MEMB     25       PMPE     C29      CG3RC1  -0.900000E-01   12.0110           0
      2986 MEMB     25       PMPE     H9R      HGA1     0.900000E-01   1.00800           0
      2987 MEMB     25       PMPE     C217     CG3C31  -0.180000       12.0110           0
      2988 MEMB     25       PMPE     H17R     HGA2     0.900000E-01   1.00800           0
      2989 MEMB     25       PMPE     H17S     HGA2     0.900000E-01   1.00800           0
      2990 MEMB     25       PMPE     C210     CG3RC1  -0.900000E-01   12.0110           0
      2991 MEMB     25       PMPE     H10R     HGA1     0.900000E-01   1.00800           0
      2992 MEMB     25       PMPE     C211     CTL2    -0.180000       12.0110           0
      2993 MEMB     25       PMPE     H11R     HAL2     0.900000E-01   1.00800           0
      2994 MEMB     25       PMPE     H11S     HAL2     0.900000E-01   1.00800           0
      2995 MEMB     25       PMPE     C212     CTL2    -0.180000       12.0110           0
      2996 MEMB     25       PMPE     H12R     HAL2     0.900000E-01   1.00800           0
      2997 MEMB     25       PMPE     H12S     HAL2     0.900000E-01   1.00800           0
      2998 MEMB     25       PMPE     C213     CTL2    -0.180000       12.0110           0
      2999 MEMB     25       PMPE     H13R     HAL2     0.900000E-01   1.00800           0
      3000 MEMB     25       PMPE     H13S     HAL2     0.900000E-01   1.00800           0
      3001 MEMB     25       PMPE     C214     CTL2    -0.180000       12.0110           0
      3002 MEMB     25       PMPE     H14R     HAL2     0.900000E-01   1.00800           0
      3003 MEMB     25       PMPE     H14S     HAL2     0.900000E-01   1.00800           0
      3004 MEMB     25       PMPE     C215     CTL2    -0.180000       12.0110           0
      3005 MEMB     25       PMPE     H15R     HAL2     0.900000E-01   1.00800           0
      3006 MEMB     25       PMPE     H15S     HAL2     0.900000E-01   1.00800           0
      3007 MEMB     25       PMPE     C216     CTL3    -0.270000       12.0110           0
      3008 MEMB     25       PMPE     H16R     HAL3     0.900000E-01   1.00800           0
      3009 MEMB     25       PMPE     H16S     HAL3     0.900000E-01   1.00800           0
      3010 MEMB     25       PMPE     H16T     HAL3     0.900000E-01   1.00800           0
      3011 MEMB     25       PMPE     C33      CTL2    -0.180000       12.0110           0
      3012 MEMB     25       PMPE     H3X      HAL2     0.900000E-01   1.00800           0
      3013 MEMB     25       PMPE     H3Y      HAL2     0.900000E-01   1.00800           0
      3014 MEMB     25       PMPE     C34      CTL2    -0.180000       12.0110           0
      3015 MEMB     25       PMPE     H4X      HAL2     0.900000E-01   1.00800           0
      3016 MEMB     25       PMPE     H4Y      HAL2     0.900000E-01   1.00800           0
      3017 MEMB     25       PMPE     C35      CTL2    -0.180000       12.0110           0
      3018 MEMB     25       PMPE     H5X      HAL2     0.900000E-01   1.00800           0
      3019 MEMB     25       PMPE     H5Y      HAL2     0.900000E-01   1.00800           0
      3020 MEMB     25       PMPE     C36      CTL2    -0.180000       12.0110           0
      3021 MEMB     25       PMPE     H6X      HAL2     0.900000E-01   1.00800           0
      3022 MEMB     25       PMPE     H6Y      HAL2     0.900000E-01   1.00800           0
      3023 MEMB     25       PMPE     C37      CTL2    -0.180000       12.0110           0
      3024 MEMB     25       PMPE     H7X      HAL2     0.900000E-01   1.00800           0
      3025 MEMB     25       PMPE     H7Y      HAL2     0.900000E-01   1.00800           0
      3026 MEMB     25       PMPE     C38      CTL2    -0.180000       12.0110           0
      3027 MEMB     25       PMPE     H8X      HAL2     0.900000E-01   1.00800           0
      3028 MEMB     25       PMPE     H8Y      HAL2     0.900000E-01   1.00800           0
      3029 MEMB     25       PMPE     C39      CTL2    -0.180000       12.0110           0
      3030 MEMB     25       PMPE     H9X      HAL2     0.900000E-01   1.00800           0
      3031 MEMB     25       PMPE     H9Y      HAL2     0.900000E-01   1.00800           0
      3032 MEMB     25       PMPE     C310     CTL2    -0.180000       12.0110           0
      3033 MEMB     25       PMPE     H10X     HAL2     0.900000E-01   1.00800           0
      3034 MEMB     25       PMPE     H10Y     HAL2     0.900000E-01   1.00800           0
      3035 MEMB     25       PMPE     C311     CTL2    -0.180000       12.0110           0
      3036 MEMB     25       PMPE     H11X     HAL2     0.900000E-01   1.00800           0
      3037 MEMB     25       PMPE     H11Y     HAL2     0.900000E-01   1.00800           0
      3038 MEMB     25       PMPE     C312     CTL2    -0.180000       12.0110           0
      3039 MEMB     25       PMPE     H12X     HAL2     0.900000E-01   1.00800           0
      3040 MEMB     25       PMPE     H12Y     HAL2     0.900000E-01   1.00800           0
      3041 MEMB     25       PMPE     C313     CTL2    -0.180000       12.0110           0
      3042 MEMB     25       PMPE     H13X     HAL2     0.900000E-01   1.00800           0
      3043 MEMB     25       PMPE     H13Y     HAL2     0.900000E-01   1.00800           0
      3044 MEMB     25       PMPE     C314     CTL2    -0.180000       12.0110           0
      3045 MEMB     25       PMPE     H14X     HAL2     0.900000E-01   1.00800           0
      3046 MEMB     25       PMPE     H14Y     HAL2     0.900000E-01   1.00800           0
      3047 MEMB     25       PMPE     C315     CTL2    -0.180000       12.0110           0
      3048 MEMB     25       PMPE     H15X     HAL2     0.900000E-01   1.00800           0
      3049 MEMB     25       PMPE     H15Y     HAL2     0.900000E-01   1.00800           0
      3050 MEMB     25       PMPE     C316     CTL3    -0.270000       12.0110           0
      3051 MEMB     25       PMPE     H16X     HAL3     0.900000E-01   1.00800           0
      3052 MEMB     25       PMPE     H16Y     HAL3     0.900000E-01   1.00800           0
      3053 MEMB     25       PMPE     H16Z     HAL3     0.900000E-01   1.00800           0
      3054 MEMB     26       PMPG     C13      CTL2     0.500000E-01   12.0110           0
      3055 MEMB     26       PMPG     H13A     HAL2     0.900000E-01   1.00800           0
      3056 MEMB     26       PMPG     H13B     HAL2     0.900000E-01   1.00800           0
      3057 MEMB     26       PMPG     OC3      OHL     -0.660000       15.9994           0
      3058 MEMB     26       PMPG     HO3      HOL      0.430000       1.00800           0
      3059 MEMB     26       PMPG     C12      CTL1     0.140000       12.0110           0
      3060 MEMB     26       PMPG     H12A     HAL1     0.900000E-01   1.00800           0
      3061 MEMB     26       PMPG     OC2      OHL     -0.660000       15.9994           0
      3062 MEMB     26       PMPG     HO2      HOL      0.430000       1.00800           0
      3063 MEMB     26       PMPG     C11      CTL2    -0.800000E-01   12.0110           0
      3064 MEMB     26       PMPG     H11A     HAL2     0.900000E-01   1.00800           0
      3065 MEMB     26       PMPG     H11B     HAL2     0.900000E-01   1.00800           0
      3066 MEMB     26       PMPG     P        PL        1.50000       30.9740           0
      3067 MEMB     26       PMPG     O13      O2L     -0.780000       15.9994           0
      3068 MEMB     26       PMPG     O14      O2L     -0.780000       15.9994           0
      3069 MEMB     26       PMPG     O11      OSLP    -0.570000       15.9994           0
      3070 MEMB     26       PMPG     O12      OSLP    -0.570000       15.9994           0
      3071 MEMB     26       PMPG     C1       CTL2    -0.800000E-01   12.0110           0
      3072 MEMB     26       PMPG     HA       HAL2     0.900000E-01   1.00800           0
      3073 MEMB     26       PMPG     HB       HAL2     0.900000E-01   1.00800           0
      3074 MEMB     26       PMPG     C2       CTL1     0.170000       12.0110           0
      3075 MEMB     26       PMPG     HS       HAL1     0.900000E-01   1.00800           0
      3076 MEMB     26       PMPG     O21      OSL     -0.490000       15.9994           0
      3077 MEMB     26       PMPG     C21      CL       0.900000       12.0110           0
      3078 MEMB     26       PMPG     O22      OBL     -0.630000       15.9994           0
      3079 MEMB     26       PMPG     C22      CTL2    -0.220000       12.0110           0
      3080 MEMB     26       PMPG     H2R      HAL2     0.900000E-01   1.00800           0
      3081 MEMB     26       PMPG     H2S      HAL2     0.900000E-01   1.00800           0
      3082 MEMB     26       PMPG     C3       CTL2     0.800000E-01   12.0110           0
      3083 MEMB     26       PMPG     HX       HAL2     0.900000E-01   1.00800           0
      3084 MEMB     26       PMPG     HY       HAL2     0.900000E-01   1.00800           0
      3085 MEMB     26       PMPG     O31      OSL     -0.490000       15.9994           0
      3086 MEMB     26       PMPG     C31      CL       0.900000       12.0110           0
      3087 MEMB     26       PMPG     O32      OBL     -0.630000       15.9994           0
      3088 MEMB     26       PMPG     C32      CTL2    -0.220000       12.0110           0
      3089 MEMB     26       PMPG     H2X      HAL2     0.900000E-01   1.00800           0
      3090 MEMB     26       PMPG     H2Y      HAL2     0.900000E-01   1.00800           0
      3091 MEMB     26       PMPG     C23      CTL2    -0.180000       12.0110           0
      3092 MEMB     26       PMPG     H3R      HAL2     0.900000E-01   1.00800           0
      3093 MEMB     26       PMPG     H3S      HAL2     0.900000E-01   1.00800           0
      3094 MEMB     26       PMPG     C24      CTL2    -0.180000       12.0110           0
      3095 MEMB     26       PMPG     H4R      HAL2     0.900000E-01   1.00800           0
      3096 MEMB     26       PMPG     H4S      HAL2     0.900000E-01   1.00800           0
      3097 MEMB     26       PMPG     C25      CTL2    -0.180000       12.0110           0
      3098 MEMB     26       PMPG     H5R      HAL2     0.900000E-01   1.00800           0
      3099 MEMB     26       PMPG     H5S      HAL2     0.900000E-01   1.00800           0
      3100 MEMB     26       PMPG     C26      CTL2    -0.180000       12.0110           0
      3101 MEMB     26       PMPG     H6R      HAL2     0.900000E-01   1.00800           0
      3102 MEMB     26       PMPG     H6S      HAL2     0.900000E-01   1.00800           0
      3103 MEMB     26       PMPG     C27      CTL2    -0.180000       12.0110           0
      3104 MEMB     26       PMPG     H7R      HAL2     0.900000E-01   1.00800           0
      3105 MEMB     26       PMPG     H7S      HAL2     0.900000E-01   1.00800           0
      3106 MEMB     26       PMPG     C28      CTL2    -0.180000       12.0110           0
      3107 MEMB     26       PMPG     H8R      HAL2     0.900000E-01   1.00800           0
      3108 MEMB     26       PMPG     H8S      HAL2     0.900000E-01   1.00800           0
      3109 MEMB     26       PMPG     C29      CG3RC1  -0.900000E-01   12.0110           0
      3110 MEMB     26       PMPG     H9R      HGA1     0.900000E-01   1.00800           0
      3111 MEMB     26       PMPG     C217     CG3C31  -0.180000       12.0110           0
      3112 MEMB     26       PMPG     H17R     HGA2     0.900000E-01   1.00800           0
      3113 MEMB     26       PMPG     H17S     HGA2     0.900000E-01   1.00800           0
      3114 MEMB     26       PMPG     C210     CG3RC1  -0.900000E-01   12.0110           0
      3115 MEMB     26       PMPG     H10R     HGA1     0.900000E-01   1.00800           0
      3116 MEMB     26       PMPG     C211     CTL2    -0.180000       12.0110           0
      3117 MEMB     26       PMPG     H11R     HAL2     0.900000E-01   1.00800           0
      3118 MEMB     26       PMPG     H11S     HAL2     0.900000E-01   1.00800           0
      3119 MEMB     26       PMPG     C212     CTL2    -0.180000       12.0110           0
      3120 MEMB     26       PMPG     H12R     HAL2     0.900000E-01   1.00800           0
      3121 MEMB     26       PMPG     H12S     HAL2     0.900000E-01   1.00800           0
      3122 MEMB     26       PMPG     C213     CTL2    -0.180000       12.0110           0
      3123 MEMB     26       PMPG     H13R     HAL2     0.900000E-01   1.00800           0
      3124 MEMB     26       PMPG     H13S     HAL2     0.900000E-01   1.00800           0
      3125 MEMB     26       PMPG     C214     CTL2    -0.180000       12.0110           0
      3126 MEMB     26       PMPG     H14R     HAL2     0.900000E-01   1.00800           0
      3127 MEMB     26       PMPG     H14S     HAL2     0.900000E-01   1.00800           0
      3128 MEMB     26       PMPG     C215     CTL2    -0.180000       12.0110           0
      3129 MEMB     26       PMPG     H15R     HAL2     0.900000E-01   1.00800           0
      3130 MEMB     26       PMPG     H15S     HAL2     0.900000E-01   1.00800           0
      3131 MEMB     26       PMPG     C216     CTL3    -0.270000       12.0110           0
      3132 MEMB     26       PMPG     H16R     HAL3     0.900000E-01   1.00800           0
      3133 MEMB     26       PMPG     H16S     HAL3     0.900000E-01   1.00800           0
      3134 MEMB     26       PMPG     H16T     HAL3     0.900000E-01   1.00800           0
      3135 MEMB     26       PMPG     C33      CTL2    -0.180000       12.0110           0
      3136 MEMB     26       PMPG     H3X      HAL2     0.900000E-01   1.00800           0
      3137 MEMB     26       PMPG     H3Y      HAL2     0.900000E-01   1.00800           0
      3138 MEMB     26       PMPG     C34      CTL2    -0.180000       12.0110           0
      3139 MEMB     26       PMPG     H4X      HAL2     0.900000E-01   1.00800           0
      3140 MEMB     26       PMPG     H4Y      HAL2     0.900000E-01   1.00800           0
      3141 MEMB     26       PMPG     C35      CTL2    -0.180000       12.0110           0
      3142 MEMB     26       PMPG     H5X      HAL2     0.900000E-01   1.00800           0
      3143 MEMB     26       PMPG     H5Y      HAL2     0.900000E-01   1.00800           0
      3144 MEMB     26       PMPG     C36      CTL2    -0.180000       12.0110           0
      3145 MEMB     26       PMPG     H6X      HAL2     0.900000E-01   1.00800           0
      3146 MEMB     26       PMPG     H6Y      HAL2     0.900000E-01   1.00800           0
      3147 MEMB     26       PMPG     C37      CTL2    -0.180000       12.0110           0
      3148 MEMB     26       PMPG     H7X      HAL2     0.900000E-01   1.00800           0
      3149 MEMB     26       PMPG     H7Y      HAL2     0.900000E-01   1.00800           0
      3150 MEMB     26       PMPG     C38      CTL2    -0.180000       12.0110           0
      3151 MEMB     26       PMPG     H8X      HAL2     0.900000E-01   1.00800           0
      3152 MEMB     26       PMPG     H8Y      HAL2     0.900000E-01   1.00800           0
      3153 MEMB     26       PMPG     C39      CTL2    -0.180000       12.0110           0
      3154 MEMB     26       PMPG     H9X      HAL2     0.900000E-01   1.00800           0
      3155 MEMB     26       PMPG     H9Y      HAL2     0.900000E-01   1.00800           0
      3156 MEMB     26       PMPG     C310     CTL2    -0.180000       12.0110           0
      3157 MEMB     26       PMPG     H10X     HAL2     0.900000E-01   1.00800           0
      3158 MEMB     26       PMPG     H10Y     HAL2     0.900000E-01   1.00800           0
      3159 MEMB     26       PMPG     C311     CTL2    -0.180000       12.0110           0
      3160 MEMB     26       PMPG     H11X     HAL2     0.900000E-01   1.00800           0
      3161 MEMB     26       PMPG     H11Y     HAL2     0.900000E-01   1.00800           0
      3162 MEMB     26       PMPG     C312     CTL2    -0.180000       12.0110           0
      3163 MEMB     26       PMPG     H12X     HAL2     0.900000E-01   1.00800           0
      3164 MEMB     26       PMPG     H12Y     HAL2     0.900000E-01   1.00800           0
      3165 MEMB     26       PMPG     C313     CTL2    -0.180000       12.0110           0
      3166 MEMB     26       PMPG     H13X     HAL2     0.900000E-01   1.00800           0
      3167 MEMB     26       PMPG     H13Y     HAL2     0.900000E-01   1.00800           0
      3168 MEMB     26       PMPG     C314     CTL2    -0.180000       12.0110           0
      3169 MEMB     26       PMPG     H14X     HAL2     0.900000E-01   1.00800           0
      3170 MEMB     26       PMPG     H14Y     HAL2     0.900000E-01   1.00800           0
      3171 MEMB     26       PMPG     C315     CTL2    -0.180000       12.0110           0
      3172 MEMB     26       PMPG     H15X     HAL2     0.900000E-01   1.00800           0
      3173 MEMB     26       PMPG     H15Y     HAL2     0.900000E-01   1.00800           0
      3174 MEMB     26       PMPG     C316     CTL3    -0.270000       12.0110           0
      3175 MEMB     26       PMPG     H16X     HAL3     0.900000E-01   1.00800           0
      3176 MEMB     26       PMPG     H16Y     HAL3     0.900000E-01   1.00800           0
      3177 MEMB     26       PMPG     H16Z     HAL3     0.900000E-01   1.00800           0
      3178 MEMB     27       PMPG     C13      CTL2     0.500000E-01   12.0110           0
      3179 MEMB     27       PMPG     H13A     HAL2     0.900000E-01   1.00800           0
      3180 MEMB     27       PMPG     H13B     HAL2     0.900000E-01   1.00800           0
      3181 MEMB     27       PMPG     OC3      OHL     -0.660000       15.9994           0
      3182 MEMB     27       PMPG     HO3      HOL      0.430000       1.00800           0
      3183 MEMB     27       PMPG     C12      CTL1     0.140000       12.0110           0
      3184 MEMB     27       PMPG     H12A     HAL1     0.900000E-01   1.00800           0
      3185 MEMB     27       PMPG     OC2      OHL     -0.660000       15.9994           0
      3186 MEMB     27       PMPG     HO2      HOL      0.430000       1.00800           0
      3187 MEMB     27       PMPG     C11      CTL2    -0.800000E-01   12.0110           0
      3188 MEMB     27       PMPG     H11A     HAL2     0.900000E-01   1.00800           0
      3189 MEMB     27       PMPG     H11B     HAL2     0.900000E-01   1.00800           0
      3190 MEMB     27       PMPG     P        PL        1.50000       30.9740           0
      3191 MEMB     27       PMPG     O13      O2L     -0.780000       15.9994           0
      3192 MEMB     27       PMPG     O14      O2L     -0.780000       15.9994           0
      3193 MEMB     27       PMPG     O11      OSLP    -0.570000       15.9994           0
      3194 MEMB     27       PMPG     O12      OSLP    -0.570000       15.9994           0
      3195 MEMB     27       PMPG     C1       CTL2    -0.800000E-01   12.0110           0
      3196 MEMB     27       PMPG     HA       HAL2     0.900000E-01   1.00800           0
      3197 MEMB     27       PMPG     HB       HAL2     0.900000E-01   1.00800           0
      3198 MEMB     27       PMPG     C2       CTL1     0.170000       12.0110           0
      3199 MEMB     27       PMPG     HS       HAL1     0.900000E-01   1.00800           0
      3200 MEMB     27       PMPG     O21      OSL     -0.490000       15.9994           0
      3201 MEMB     27       PMPG     C21      CL       0.900000       12.0110           0
      3202 MEMB     27       PMPG     O22      OBL     -0.630000       15.9994           0
      3203 MEMB     27       PMPG     C22      CTL2    -0.220000       12.0110           0
      3204 MEMB     27       PMPG     H2R      HAL2     0.900000E-01   1.00800           0
      3205 MEMB     27       PMPG     H2S      HAL2     0.900000E-01   1.00800           0
      3206 MEMB     27       PMPG     C3       CTL2     0.800000E-01   12.0110           0
      3207 MEMB     27       PMPG     HX       HAL2     0.900000E-01   1.00800           0
      3208 MEMB     27       PMPG     HY       HAL2     0.900000E-01   1.00800           0
      3209 MEMB     27       PMPG     O31      OSL     -0.490000       15.9994           0
      3210 MEMB     27       PMPG     C31      CL       0.900000       12.0110           0
      3211 MEMB     27       PMPG     O32      OBL     -0.630000       15.9994           0
      3212 MEMB     27       PMPG     C32      CTL2    -0.220000       12.0110           0
      3213 MEMB     27       PMPG     H2X      HAL2     0.900000E-01   1.00800           0
      3214 MEMB     27       PMPG     H2Y      HAL2     0.900000E-01   1.00800           0
      3215 MEMB     27       PMPG     C23      CTL2    -0.180000       12.0110           0
      3216 MEMB     27       PMPG     H3R      HAL2     0.900000E-01   1.00800           0
      3217 MEMB     27       PMPG     H3S      HAL2     0.900000E-01   1.00800           0
      3218 MEMB     27       PMPG     C24      CTL2    -0.180000       12.0110           0
      3219 MEMB     27       PMPG     H4R      HAL2     0.900000E-01   1.00800           0
      3220 MEMB     27       PMPG     H4S      HAL2     0.900000E-01   1.00800           0
      3221 MEMB     27       PMPG     C25      CTL2    -0.180000       12.0110           0
      3222 MEMB     27       PMPG     H5R      HAL2     0.900000E-01   1.00800           0
      3223 MEMB     27       PMPG     H5S      HAL2     0.900000E-01   1.00800           0
      3224 MEMB     27       PMPG     C26      CTL2    -0.180000       12.0110           0
      3225 MEMB     27       PMPG     H6R      HAL2     0.900000E-01   1.00800           0
      3226 MEMB     27       PMPG     H6S      HAL2     0.900000E-01   1.00800           0
      3227 MEMB     27       PMPG     C27      CTL2    -0.180000       12.0110           0
      3228 MEMB     27       PMPG     H7R      HAL2     0.900000E-01   1.00800           0
      3229 MEMB     27       PMPG     H7S      HAL2     0.900000E-01   1.00800           0
      3230 MEMB     27       PMPG     C28      CTL2    -0.180000       12.0110           0
      3231 MEMB     27       PMPG     H8R      HAL2     0.900000E-01   1.00800           0
      3232 MEMB     27       PMPG     H8S      HAL2     0.900000E-01   1.00800           0
      3233 MEMB     27       PMPG     C29      CG3RC1  -0.900000E-01   12.0110           0
      3234 MEMB     27       PMPG     H9R      HGA1     0.900000E-01   1.00800           0
      3235 MEMB     27       PMPG     C217     CG3C31  -0.180000       12.0110           0
      3236 MEMB     27       PMPG     H17R     HGA2     0.900000E-01   1.00800           0
      3237 MEMB     27       PMPG     H17S     HGA2     0.900000E-01   1.00800           0
      3238 MEMB     27       PMPG     C210     CG3RC1  -0.900000E-01   12.0110           0
      3239 MEMB     27       PMPG     H10R     HGA1     0.900000E-01   1.00800           0
      3240 MEMB     27       PMPG     C211     CTL2    -0.180000       12.0110           0
      3241 MEMB     27       PMPG     H11R     HAL2     0.900000E-01   1.00800           0
      3242 MEMB     27       PMPG     H11S     HAL2     0.900000E-01   1.00800           0
      3243 MEMB     27       PMPG     C212     CTL2    -0.180000       12.0110           0
      3244 MEMB     27       PMPG     H12R     HAL2     0.900000E-01   1.00800           0
      3245 MEMB     27       PMPG     H12S     HAL2     0.900000E-01   1.00800           0
      3246 MEMB     27       PMPG     C213     CTL2    -0.180000       12.0110           0
      3247 MEMB     27       PMPG     H13R     HAL2     0.900000E-01   1.00800           0
      3248 MEMB     27       PMPG     H13S     HAL2     0.900000E-01   1.00800           0
      3249 MEMB     27       PMPG     C214     CTL2    -0.180000       12.0110           0
      3250 MEMB     27       PMPG     H14R     HAL2     0.900000E-01   1.00800           0
      3251 MEMB     27       PMPG     H14S     HAL2     0.900000E-01   1.00800           0
      3252 MEMB     27       PMPG     C215     CTL2    -0.180000       12.0110           0
      3253 MEMB     27       PMPG     H15R     HAL2     0.900000E-01   1.00800           0
      3254 MEMB     27       PMPG     H15S     HAL2     0.900000E-01   1.00800           0
      3255 MEMB     27       PMPG     C216     CTL3    -0.270000       12.0110           0
      3256 MEMB     27       PMPG     H16R     HAL3     0.900000E-01   1.00800           0
      3257 MEMB     27       PMPG     H16S     HAL3     0.900000E-01   1.00800           0
      3258 MEMB     27       PMPG     H16T     HAL3     0.900000E-01   1.00800           0
      3259 MEMB     27       PMPG     C33      CTL2    -0.180000       12.0110           0
      3260 MEMB     27       PMPG     H3X      HAL2     0.900000E-01   1.00800           0
      3261 MEMB     27       PMPG     H3Y      HAL2     0.900000E-01   1.00800           0
      3262 MEMB     27       PMPG     C34      CTL2    -0.180000       12.0110           0
      3263 MEMB     27       PMPG     H4X      HAL2     0.900000E-01   1.00800           0
      3264 MEMB     27       PMPG     H4Y      HAL2     0.900000E-01   1.00800           0
      3265 MEMB     27       PMPG     C35      CTL2    -0.180000       12.0110           0
      3266 MEMB     27       PMPG     H5X      HAL2     0.900000E-01   1.00800           0
      3267 MEMB     27       PMPG     H5Y      HAL2     0.900000E-01   1.00800           0
      3268 MEMB     27       PMPG     C36      CTL2    -0.180000       12.0110           0
      3269 MEMB     27       PMPG     H6X      HAL2     0.900000E-01   1.00800           0
      3270 MEMB     27       PMPG     H6Y      HAL2     0.900000E-01   1.00800           0
      3271 MEMB     27       PMPG     C37      CTL2    -0.180000       12.0110           0
      3272 MEMB     27       PMPG     H7X      HAL2     0.900000E-01   1.00800           0
      3273 MEMB     27       PMPG     H7Y      HAL2     0.900000E-01   1.00800           0
      3274 MEMB     27       PMPG     C38      CTL2    -0.180000       12.0110           0
      3275 MEMB     27       PMPG     H8X      HAL2     0.900000E-01   1.00800           0
      3276 MEMB     27       PMPG     H8Y      HAL2     0.900000E-01   1.00800           0
      3277 MEMB     27       PMPG     C39      CTL2    -0.180000       12.0110           0
      3278 MEMB     27       PMPG     H9X      HAL2     0.900000E-01   1.00800           0
      3279 MEMB     27       PMPG     H9Y      HAL2     0.900000E-01   1.00800           0
      3280 MEMB     27       PMPG     C310     CTL2    -0.180000       12.0110           0
      3281 MEMB     27       PMPG     H10X     HAL2     0.900000E-01   1.00800           0
      3282 MEMB     27       PMPG     H10Y     HAL2     0.900000E-01   1.00800           0
      3283 MEMB     27       PMPG     C311     CTL2    -0.180000       12.0110           0
      3284 MEMB     27       PMPG     H11X     HAL2     0.900000E-01   1.00800           0
      3285 MEMB     27       PMPG     H11Y     HAL2     0.900000E-01   1.00800           0
      3286 MEMB     27       PMPG     C312     CTL2    -0.180000       12.0110           0
      3287 MEMB     27       PMPG     H12X     HAL2     0.900000E-01   1.00800           0
      3288 MEMB     27       PMPG     H12Y     HAL2     0.900000E-01   1.00800           0
      3289 MEMB     27       PMPG     C313     CTL2    -0.180000       12.0110           0
      3290 MEMB     27       PMPG     H13X     HAL2     0.900000E-01   1.00800           0
      3291 MEMB     27       PMPG     H13Y     HAL2     0.900000E-01   1.00800           0
      3292 MEMB     27       PMPG     C314     CTL2    -0.180000       12.0110           0
      3293 MEMB     27       PMPG     H14X     HAL2     0.900000E-01   1.00800           0
      3294 MEMB     27       PMPG     H14Y     HAL2     0.900000E-01   1.00800           0
      3295 MEMB     27       PMPG     C315     CTL2    -0.180000       12.0110           0
      3296 MEMB     27       PMPG     H15X     HAL2     0.900000E-01   1.00800           0
      3297 MEMB     27       PMPG     H15Y     HAL2     0.900000E-01   1.00800           0
      3298 MEMB     27       PMPG     C316     CTL3    -0.270000       12.0110           0
      3299 MEMB     27       PMPG     H16X     HAL3     0.900000E-01   1.00800           0
      3300 MEMB     27       PMPG     H16Y     HAL3     0.900000E-01   1.00800           0
      3301 MEMB     27       PMPG     H16Z     HAL3     0.900000E-01   1.00800           0
      3302 MEMB     28       PYPG     C13      CTL2     0.500000E-01   12.0110           0
      3303 MEMB     28       PYPG     H13A     HAL2     0.900000E-01   1.00800           0
      3304 MEMB     28       PYPG     H13B     HAL2     0.900000E-01   1.00800           0
      3305 MEMB     28       PYPG     OC3      OHL     -0.660000       15.9994           0
      3306 MEMB     28       PYPG     HO3      HOL      0.430000       1.00800           0
      3307 MEMB     28       PYPG     C12      CTL1     0.140000       12.0110           0
      3308 MEMB     28       PYPG     H12A     HAL1     0.900000E-01   1.00800           0
      3309 MEMB     28       PYPG     OC2      OHL     -0.660000       15.9994           0
      3310 MEMB     28       PYPG     HO2      HOL      0.430000       1.00800           0
      3311 MEMB     28       PYPG     C11      CTL2    -0.800000E-01   12.0110           0
      3312 MEMB     28       PYPG     H11A     HAL2     0.900000E-01   1.00800           0
      3313 MEMB     28       PYPG     H11B     HAL2     0.900000E-01   1.00800           0
      3314 MEMB     28       PYPG     P        PL        1.50000       30.9740           0
      3315 MEMB     28       PYPG     O13      O2L     -0.780000       15.9994           0
      3316 MEMB     28       PYPG     O14      O2L     -0.780000       15.9994           0
      3317 MEMB     28       PYPG     O11      OSLP    -0.570000       15.9994           0
      3318 MEMB     28       PYPG     O12      OSLP    -0.570000       15.9994           0
      3319 MEMB     28       PYPG     C1       CTL2    -0.800000E-01   12.0110           0
      3320 MEMB     28       PYPG     HA       HAL2     0.900000E-01   1.00800           0
      3321 MEMB     28       PYPG     HB       HAL2     0.900000E-01   1.00800           0
      3322 MEMB     28       PYPG     C2       CTL1     0.170000       12.0110           0
      3323 MEMB     28       PYPG     HS       HAL1     0.900000E-01   1.00800           0
      3324 MEMB     28       PYPG     O21      OSL     -0.490000       15.9994           0
      3325 MEMB     28       PYPG     C21      CL       0.900000       12.0110           0
      3326 MEMB     28       PYPG     O22      OBL     -0.630000       15.9994           0
      3327 MEMB     28       PYPG     C22      CTL2    -0.220000       12.0110           0
      3328 MEMB     28       PYPG     H2R      HAL2     0.900000E-01   1.00800           0
      3329 MEMB     28       PYPG     H2S      HAL2     0.900000E-01   1.00800           0
      3330 MEMB     28       PYPG     C3       CTL2     0.800000E-01   12.0110           0
      3331 MEMB     28       PYPG     HX       HAL2     0.900000E-01   1.00800           0
      3332 MEMB     28       PYPG     HY       HAL2     0.900000E-01   1.00800           0
      3333 MEMB     28       PYPG     O31      OSL     -0.490000       15.9994           0
      3334 MEMB     28       PYPG     C31      CL       0.900000       12.0110           0
      3335 MEMB     28       PYPG     O32      OBL     -0.630000       15.9994           0
      3336 MEMB     28       PYPG     C32      CTL2    -0.220000       12.0110           0
      3337 MEMB     28       PYPG     H2X      HAL2     0.900000E-01   1.00800           0
      3338 MEMB     28       PYPG     H2Y      HAL2     0.900000E-01   1.00800           0
      3339 MEMB     28       PYPG     C23      CTL2    -0.180000       12.0110           0
      3340 MEMB     28       PYPG     H3R      HAL2     0.900000E-01   1.00800           0
      3341 MEMB     28       PYPG     H3S      HAL2     0.900000E-01   1.00800           0
      3342 MEMB     28       PYPG     C24      CTL2    -0.180000       12.0110           0
      3343 MEMB     28       PYPG     H4R      HAL2     0.900000E-01   1.00800           0
      3344 MEMB     28       PYPG     H4S      HAL2     0.900000E-01   1.00800           0
      3345 MEMB     28       PYPG     C25      CTL2    -0.180000       12.0110           0
      3346 MEMB     28       PYPG     H5R      HAL2     0.900000E-01   1.00800           0
      3347 MEMB     28       PYPG     H5S      HAL2     0.900000E-01   1.00800           0
      3348 MEMB     28       PYPG     C26      CTL2    -0.180000       12.0110           0
      3349 MEMB     28       PYPG     H6R      HAL2     0.900000E-01   1.00800           0
      3350 MEMB     28       PYPG     H6S      HAL2     0.900000E-01   1.00800           0
      3351 MEMB     28       PYPG     C27      CTL2    -0.180000       12.0110           0
      3352 MEMB     28       PYPG     H7R      HAL2     0.900000E-01   1.00800           0
      3353 MEMB     28       PYPG     H7S      HAL2     0.900000E-01   1.00800           0
      3354 MEMB     28       PYPG     C28      CTL2    -0.180000       12.0110           0
      3355 MEMB     28       PYPG     H8R      HAL2     0.900000E-01   1.00800           0
      3356 MEMB     28       PYPG     H8S      HAL2     0.900000E-01   1.00800           0
      3357 MEMB     28       PYPG     C29      CEL1    -0.150000       12.0110           0
      3358 MEMB     28       PYPG     H9R      HEL1     0.150000       1.00800           0
      3359 MEMB     28       PYPG     C210     CEL1    -0.150000       12.0110           0
      3360 MEMB     28       PYPG     H10R     HEL1     0.150000       1.00800           0
      3361 MEMB     28       PYPG     C211     CTL2    -0.180000       12.0110           0
      3362 MEMB     28       PYPG     H11R     HAL2     0.900000E-01   1.00800           0
      3363 MEMB     28       PYPG     H11S     HAL2     0.900000E-01   1.00800           0
      3364 MEMB     28       PYPG     C212     CTL2    -0.180000       12.0110           0
      3365 MEMB     28       PYPG     H12R     HAL2     0.900000E-01   1.00800           0
      3366 MEMB     28       PYPG     H12S     HAL2     0.900000E-01   1.00800           0
      3367 MEMB     28       PYPG     C213     CTL2    -0.180000       12.0110           0
      3368 MEMB     28       PYPG     H13R     HAL2     0.900000E-01   1.00800           0
      3369 MEMB     28       PYPG     H13S     HAL2     0.900000E-01   1.00800           0
      3370 MEMB     28       PYPG     C214     CTL2    -0.180000       12.0110           0
      3371 MEMB     28       PYPG     H14R     HAL2     0.900000E-01   1.00800           0
      3372 MEMB     28       PYPG     H14S     HAL2     0.900000E-01   1.00800           0
      3373 MEMB     28       PYPG     C215     CTL2    -0.180000       12.0110           0
      3374 MEMB     28       PYPG     H15R     HAL2     0.900000E-01   1.00800           0
      3375 MEMB     28       PYPG     H15S     HAL2     0.900000E-01   1.00800           0
      3376 MEMB     28       PYPG     C216     CTL3    -0.270000       12.0110           0
      3377 MEMB     28       PYPG     H16R     HAL3     0.900000E-01   1.00800           0
      3378 MEMB     28       PYPG     H16S     HAL3     0.900000E-01   1.00800           0
      3379 MEMB     28       PYPG     H16T     HAL3     0.900000E-01   1.00800           0
      3380 MEMB     28       PYPG     C33      CTL2    -0.180000       12.0110           0
      3381 MEMB     28       PYPG     H3X      HAL2     0.900000E-01   1.00800           0
      3382 MEMB     28       PYPG     H3Y      HAL2     0.900000E-01   1.00800           0
      3383 MEMB     28       PYPG     C34      CTL2    -0.180000       12.0110           0
      3384 MEMB     28       PYPG     H4X      HAL2     0.900000E-01   1.00800           0
      3385 MEMB     28       PYPG     H4Y      HAL2     0.900000E-01   1.00800           0
      3386 MEMB     28       PYPG     C35      CTL2    -0.180000       12.0110           0
      3387 MEMB     28       PYPG     H5X      HAL2     0.900000E-01   1.00800           0
      3388 MEMB     28       PYPG     H5Y      HAL2     0.900000E-01   1.00800           0
      3389 MEMB     28       PYPG     C36      CTL2    -0.180000       12.0110           0
      3390 MEMB     28       PYPG     H6X      HAL2     0.900000E-01   1.00800           0
      3391 MEMB     28       PYPG     H6Y      HAL2     0.900000E-01   1.00800           0
      3392 MEMB     28       PYPG     C37      CTL2    -0.180000       12.0110           0
      3393 MEMB     28       PYPG     H7X      HAL2     0.900000E-01   1.00800           0
      3394 MEMB     28       PYPG     H7Y      HAL2     0.900000E-01   1.00800           0
      3395 MEMB     28       PYPG     C38      CTL2    -0.180000       12.0110           0
      3396 MEMB     28       PYPG     H8X      HAL2     0.900000E-01   1.00800           0
      3397 MEMB     28       PYPG     H8Y      HAL2     0.900000E-01   1.00800           0
      3398 MEMB     28       PYPG     C39      CTL2    -0.180000       12.0110           0
      3399 MEMB     28       PYPG     H9X      HAL2     0.900000E-01   1.00800           0
      3400 MEMB     28       PYPG     H9Y      HAL2     0.900000E-01   1.00800           0
      3401 MEMB     28       PYPG     C310     CTL2    -0.180000       12.0110           0
      3402 MEMB     28       PYPG     H10X     HAL2     0.900000E-01   1.00800           0
      3403 MEMB     28       PYPG     H10Y     HAL2     0.900000E-01   1.00800           0
      3404 MEMB     28       PYPG     C311     CTL2    -0.180000       12.0110           0
      3405 MEMB     28       PYPG     H11X     HAL2     0.900000E-01   1.00800           0
      3406 MEMB     28       PYPG     H11Y     HAL2     0.900000E-01   1.00800           0
      3407 MEMB     28       PYPG     C312     CTL2    -0.180000       12.0110           0
      3408 MEMB     28       PYPG     H12X     HAL2     0.900000E-01   1.00800           0
      3409 MEMB     28       PYPG     H12Y     HAL2     0.900000E-01   1.00800           0
      3410 MEMB     28       PYPG     C313     CTL2    -0.180000       12.0110           0
      3411 MEMB     28       PYPG     H13X     HAL2     0.900000E-01   1.00800           0
      3412 MEMB     28       PYPG     H13Y     HAL2     0.900000E-01   1.00800           0
      3413 MEMB     28       PYPG     C314     CTL2    -0.180000       12.0110           0
      3414 MEMB     28       PYPG     H14X     HAL2     0.900000E-01   1.00800           0
      3415 MEMB     28       PYPG     H14Y     HAL2     0.900000E-01   1.00800           0
      3416 MEMB     28       PYPG     C315     CTL2    -0.180000       12.0110           0
      3417 MEMB     28       PYPG     H15X     HAL2     0.900000E-01   1.00800           0
      3418 MEMB     28       PYPG     H15Y     HAL2     0.900000E-01   1.00800           0
      3419 MEMB     28       PYPG     C316     CTL3    -0.270000       12.0110           0
      3420 MEMB     28       PYPG     H16X     HAL3     0.900000E-01   1.00800           0
      3421 MEMB     28       PYPG     H16Y     HAL3     0.900000E-01   1.00800           0
      3422 MEMB     28       PYPG     H16Z     HAL3     0.900000E-01   1.00800           0
      3423 MEMB     29       PMPE     N        NH3L    -0.300000       14.0070           0
      3424 MEMB     29       PMPE     HN1      HCL      0.330000       1.00800           0
      3425 MEMB     29       PMPE     HN2      HCL      0.330000       1.00800           0
      3426 MEMB     29       PMPE     HN3      HCL      0.330000       1.00800           0
      3427 MEMB     29       PMPE     C12      CTL2     0.130000       12.0110           0
      3428 MEMB     29       PMPE     H12A     HAL2     0.900000E-01   1.00800           0
      3429 MEMB     29       PMPE     H12B     HAL2     0.900000E-01   1.00800           0
      3430 MEMB     29       PMPE     C11      CTL2    -0.800000E-01   12.0110           0
      3431 MEMB     29       PMPE     H11A     HAL2     0.900000E-01   1.00800           0
      3432 MEMB     29       PMPE     H11B     HAL2     0.900000E-01   1.00800           0
      3433 MEMB     29       PMPE     P        PL        1.50000       30.9740           0
      3434 MEMB     29       PMPE     O13      O2L     -0.780000       15.9994           0
      3435 MEMB     29       PMPE     O14      O2L     -0.780000       15.9994           0
      3436 MEMB     29       PMPE     O11      OSLP    -0.570000       15.9994           0
      3437 MEMB     29       PMPE     O12      OSLP    -0.570000       15.9994           0
      3438 MEMB     29       PMPE     C1       CTL2    -0.800000E-01   12.0110           0
      3439 MEMB     29       PMPE     HA       HAL2     0.900000E-01   1.00800           0
      3440 MEMB     29       PMPE     HB       HAL2     0.900000E-01   1.00800           0
      3441 MEMB     29       PMPE     C2       CTL1     0.170000       12.0110           0
      3442 MEMB     29       PMPE     HS       HAL1     0.900000E-01   1.00800           0
      3443 MEMB     29       PMPE     O21      OSL     -0.490000       15.9994           0
      3444 MEMB     29       PMPE     C21      CL       0.900000       12.0110           0
      3445 MEMB     29       PMPE     O22      OBL     -0.630000       15.9994           0
      3446 MEMB     29       PMPE     C22      CTL2    -0.220000       12.0110           0
      3447 MEMB     29       PMPE     H2R      HAL2     0.900000E-01   1.00800           0
      3448 MEMB     29       PMPE     H2S      HAL2     0.900000E-01   1.00800           0
      3449 MEMB     29       PMPE     C3       CTL2     0.800000E-01   12.0110           0
      3450 MEMB     29       PMPE     HX       HAL2     0.900000E-01   1.00800           0
      3451 MEMB     29       PMPE     HY       HAL2     0.900000E-01   1.00800           0
      3452 MEMB     29       PMPE     O31      OSL     -0.490000       15.9994           0
      3453 MEMB     29       PMPE     C31      CL       0.900000       12.0110           0
      3454 MEMB     29       PMPE     O32      OBL     -0.630000       15.9994           0
      3455 MEMB     29       PMPE     C32      CTL2    -0.220000       12.0110           0
      3456 MEMB     29       PMPE     H2X      HAL2     0.900000E-01   1.00800           0
      3457 MEMB     29       PMPE     H2Y      HAL2     0.900000E-01   1.00800           0
      3458 MEMB     29       PMPE     C23      CTL2    -0.180000       12.0110           0
      3459 MEMB     29       PMPE     H3R      HAL2     0.900000E-01   1.00800           0
      3460 MEMB     29       PMPE     H3S      HAL2     0.900000E-01   1.00800           0
      3461 MEMB     29       PMPE     C24      CTL2    -0.180000       12.0110           0
      3462 MEMB     29       PMPE     H4R      HAL2     0.900000E-01   1.00800           0
      3463 MEMB     29       PMPE     H4S      HAL2     0.900000E-01   1.00800           0
      3464 MEMB     29       PMPE     C25      CTL2    -0.180000       12.0110           0
      3465 MEMB     29       PMPE     H5R      HAL2     0.900000E-01   1.00800           0
      3466 MEMB     29       PMPE     H5S      HAL2     0.900000E-01   1.00800           0
      3467 MEMB     29       PMPE     C26      CTL2    -0.180000       12.0110           0
      3468 MEMB     29       PMPE     H6R      HAL2     0.900000E-01   1.00800           0
      3469 MEMB     29       PMPE     H6S      HAL2     0.900000E-01   1.00800           0
      3470 MEMB     29       PMPE     C27      CTL2    -0.180000       12.0110           0
      3471 MEMB     29       PMPE     H7R      HAL2     0.900000E-01   1.00800           0
      3472 MEMB     29       PMPE     H7S      HAL2     0.900000E-01   1.00800           0
      3473 MEMB     29       PMPE     C28      CTL2    -0.180000       12.0110           0
      3474 MEMB     29       PMPE     H8R      HAL2     0.900000E-01   1.00800           0
      3475 MEMB     29       PMPE     H8S      HAL2     0.900000E-01   1.00800           0
      3476 MEMB     29       PMPE     C29      CG3RC1  -0.900000E-01   12.0110           0
      3477 MEMB     29       PMPE     H9R      HGA1     0.900000E-01   1.00800           0
      3478 MEMB     29       PMPE     C217     CG3C31  -0.180000       12.0110           0
      3479 MEMB     29       PMPE     H17R     HGA2     0.900000E-01   1.00800           0
      3480 MEMB     29       PMPE     H17S     HGA2     0.900000E-01   1.00800           0
      3481 MEMB     29       PMPE     C210     CG3RC1  -0.900000E-01   12.0110           0
      3482 MEMB     29       PMPE     H10R     HGA1     0.900000E-01   1.00800           0
      3483 MEMB     29       PMPE     C211     CTL2    -0.180000       12.0110           0
      3484 MEMB     29       PMPE     H11R     HAL2     0.900000E-01   1.00800           0
      3485 MEMB     29       PMPE     H11S     HAL2     0.900000E-01   1.00800           0
      3486 MEMB     29       PMPE     C212     CTL2    -0.180000       12.0110           0
      3487 MEMB     29       PMPE     H12R     HAL2     0.900000E-01   1.00800           0
      3488 MEMB     29       PMPE     H12S     HAL2     0.900000E-01   1.00800           0
      3489 MEMB     29       PMPE     C213     CTL2    -0.180000       12.0110           0
      3490 MEMB     29       PMPE     H13R     HAL2     0.900000E-01   1.00800           0
      3491 MEMB     29       PMPE     H13S     HAL2     0.900000E-01   1.00800           0
      3492 MEMB     29       PMPE     C214     CTL2    -0.180000       12.0110           0
      3493 MEMB     29       PMPE     H14R     HAL2     0.900000E-01   1.00800           0
      3494 MEMB     29       PMPE     H14S     HAL2     0.900000E-01   1.00800           0
      3495 MEMB     29       PMPE     C215     CTL2    -0.180000       12.0110           0
      3496 MEMB     29       PMPE     H15R     HAL2     0.900000E-01   1.00800           0
      3497 MEMB     29       PMPE     H15S     HAL2     0.900000E-01   1.00800           0
      3498 MEMB     29       PMPE     C216     CTL3    -0.270000       12.0110           0
      3499 MEMB     29       PMPE     H16R     HAL3     0.900000E-01   1.00800           0
      3500 MEMB     29       PMPE     H16S     HAL3     0.900000E-01   1.00800           0
      3501 MEMB     29       PMPE     H16T     HAL3     0.900000E-01   1.00800           0
      3502 MEMB     29       PMPE     C33      CTL2    -0.180000       12.0110           0
      3503 MEMB     29       PMPE     H3X      HAL2     0.900000E-01   1.00800           0
      3504 MEMB     29       PMPE     H3Y      HAL2     0.900000E-01   1.00800           0
      3505 MEMB     29       PMPE     C34      CTL2    -0.180000       12.0110           0
      3506 MEMB     29       PMPE     H4X      HAL2     0.900000E-01   1.00800           0
      3507 MEMB     29       PMPE     H4Y      HAL2     0.900000E-01   1.00800           0
      3508 MEMB     29       PMPE     C35      CTL2    -0.180000       12.0110           0
      3509 MEMB     29       PMPE     H5X      HAL2     0.900000E-01   1.00800           0
      3510 MEMB     29       PMPE     H5Y      HAL2     0.900000E-01   1.00800           0
      3511 MEMB     29       PMPE     C36      CTL2    -0.180000       12.0110           0
      3512 MEMB     29       PMPE     H6X      HAL2     0.900000E-01   1.00800           0
      3513 MEMB     29       PMPE     H6Y      HAL2     0.900000E-01   1.00800           0
      3514 MEMB     29       PMPE     C37      CTL2    -0.180000       12.0110           0
      3515 MEMB     29       PMPE     H7X      HAL2     0.900000E-01   1.00800           0
      3516 MEMB     29       PMPE     H7Y      HAL2     0.900000E-01   1.00800           0
      3517 MEMB     29       PMPE     C38      CTL2    -0.180000       12.0110           0
      3518 MEMB     29       PMPE     H8X      HAL2     0.900000E-01   1.00800           0
      3519 MEMB     29       PMPE     H8Y      HAL2     0.900000E-01   1.00800           0
      3520 MEMB     29       PMPE     C39      CTL2    -0.180000       12.0110           0
      3521 MEMB     29       PMPE     H9X      HAL2     0.900000E-01   1.00800           0
      3522 MEMB     29       PMPE     H9Y      HAL2     0.900000E-01   1.00800           0
      3523 MEMB     29       PMPE     C310     CTL2    -0.180000       12.0110           0
      3524 MEMB     29       PMPE     H10X     HAL2     0.900000E-01   1.00800           0
      3525 MEMB     29       PMPE     H10Y     HAL2     0.900000E-01   1.00800           0
      3526 MEMB     29       PMPE     C311     CTL2    -0.180000       12.0110           0
      3527 MEMB     29       PMPE     H11X     HAL2     0.900000E-01   1.00800           0
      3528 MEMB     29       PMPE     H11Y     HAL2     0.900000E-01   1.00800           0
      3529 MEMB     29       PMPE     C312     CTL2    -0.180000       12.0110           0
      3530 MEMB     29       PMPE     H12X     HAL2     0.900000E-01   1.00800           0
      3531 MEMB     29       PMPE     H12Y     HAL2     0.900000E-01   1.00800           0
      3532 MEMB     29       PMPE     C313     CTL2    -0.180000       12.0110           0
      3533 MEMB     29       PMPE     H13X     HAL2     0.900000E-01   1.00800           0
      3534 MEMB     29       PMPE     H13Y     HAL2     0.900000E-01   1.00800           0
      3535 MEMB     29       PMPE     C314     CTL2    -0.180000       12.0110           0
      3536 MEMB     29       PMPE     H14X     HAL2     0.900000E-01   1.00800           0
      3537 MEMB     29       PMPE     H14Y     HAL2     0.900000E-01   1.00800           0
      3538 MEMB     29       PMPE     C315     CTL2    -0.180000       12.0110           0
      3539 MEMB     29       PMPE     H15X     HAL2     0.900000E-01   1.00800           0
      3540 MEMB     29       PMPE     H15Y     HAL2     0.900000E-01   1.00800           0
      3541 MEMB     29       PMPE     C316     CTL3    -0.270000       12.0110           0
      3542 MEMB     29       PMPE     H16X     HAL3     0.900000E-01   1.00800           0
      3543 MEMB     29       PMPE     H16Y     HAL3     0.900000E-01   1.00800           0
      3544 MEMB     29       PMPE     H16Z     HAL3     0.900000E-01   1.00800           0
      3545 MEMB     30       POPE     N        NH3L    -0.300000       14.0070           0
      3546 MEMB     30       POPE     HN1      HCL      0.330000       1.00800           0
      3547 MEMB     30       POPE     HN2      HCL      0.330000       1.00800           0
      3548 MEMB     30       POPE     HN3      HCL      0.330000       1.00800           0
      3549 MEMB     30       POPE     C12      CTL2     0.130000       12.0110           0
      3550 MEMB     30       POPE     H12A     HAL2     0.900000E-01   1.00800           0
      3551 MEMB     30       POPE     H12B     HAL2     0.900000E-01   1.00800           0
      3552 MEMB     30       POPE     C11      CTL2    -0.800000E-01   12.0110           0
      3553 MEMB     30       POPE     H11A     HAL2     0.900000E-01   1.00800           0
      3554 MEMB     30       POPE     H11B     HAL2     0.900000E-01   1.00800           0
      3555 MEMB     30       POPE     P        PL        1.50000       30.9740           0
      3556 MEMB     30       POPE     O13      O2L     -0.780000       15.9994           0
      3557 MEMB     30       POPE     O14      O2L     -0.780000       15.9994           0
      3558 MEMB     30       POPE     O11      OSLP    -0.570000       15.9994           0
      3559 MEMB     30       POPE     O12      OSLP    -0.570000       15.9994           0
      3560 MEMB     30       POPE     C1       CTL2    -0.800000E-01   12.0110           0
      3561 MEMB     30       POPE     HA       HAL2     0.900000E-01   1.00800           0
      3562 MEMB     30       POPE     HB       HAL2     0.900000E-01   1.00800           0
      3563 MEMB     30       POPE     C2       CTL1     0.170000       12.0110           0
      3564 MEMB     30       POPE     HS       HAL1     0.900000E-01   1.00800           0
      3565 MEMB     30       POPE     O21      OSL     -0.490000       15.9994           0
      3566 MEMB     30       POPE     C21      CL       0.900000       12.0110           0
      3567 MEMB     30       POPE     O22      OBL     -0.630000       15.9994           0
      3568 MEMB     30       POPE     C22      CTL2    -0.220000       12.0110           0
      3569 MEMB     30       POPE     H2R      HAL2     0.900000E-01   1.00800           0
      3570 MEMB     30       POPE     H2S      HAL2     0.900000E-01   1.00800           0
      3571 MEMB     30       POPE     C3       CTL2     0.800000E-01   12.0110           0
      3572 MEMB     30       POPE     HX       HAL2     0.900000E-01   1.00800           0
      3573 MEMB     30       POPE     HY       HAL2     0.900000E-01   1.00800           0
      3574 MEMB     30       POPE     O31      OSL     -0.490000       15.9994           0
      3575 MEMB     30       POPE     C31      CL       0.900000       12.0110           0
      3576 MEMB     30       POPE     O32      OBL     -0.630000       15.9994           0
      3577 MEMB     30       POPE     C32      CTL2    -0.220000       12.0110           0
      3578 MEMB     30       POPE     H2X      HAL2     0.900000E-01   1.00800           0
      3579 MEMB     30       POPE     H2Y      HAL2     0.900000E-01   1.00800           0
      3580 MEMB     30       POPE     C23      CTL2    -0.180000       12.0110           0
      3581 MEMB     30       POPE     H3R      HAL2     0.900000E-01   1.00800           0
      3582 MEMB     30       POPE     H3S      HAL2     0.900000E-01   1.00800           0
      3583 MEMB     30       POPE     C24      CTL2    -0.180000       12.0110           0
      3584 MEMB     30       POPE     H4R      HAL2     0.900000E-01   1.00800           0
      3585 MEMB     30       POPE     H4S      HAL2     0.900000E-01   1.00800           0
      3586 MEMB     30       POPE     C25      CTL2    -0.180000       12.0110           0
      3587 MEMB     30       POPE     H5R      HAL2     0.900000E-01   1.00800           0
      3588 MEMB     30       POPE     H5S      HAL2     0.900000E-01   1.00800           0
      3589 MEMB     30       POPE     C26      CTL2    -0.180000       12.0110           0
      3590 MEMB     30       POPE     H6R      HAL2     0.900000E-01   1.00800           0
      3591 MEMB     30       POPE     H6S      HAL2     0.900000E-01   1.00800           0
      3592 MEMB     30       POPE     C27      CTL2    -0.180000       12.0110           0
      3593 MEMB     30       POPE     H7R      HAL2     0.900000E-01   1.00800           0
      3594 MEMB     30       POPE     H7S      HAL2     0.900000E-01   1.00800           0
      3595 MEMB     30       POPE     C28      CTL2    -0.180000       12.0110           0
      3596 MEMB     30       POPE     H8R      HAL2     0.900000E-01   1.00800           0
      3597 MEMB     30       POPE     H8S      HAL2     0.900000E-01   1.00800           0
      3598 MEMB     30       POPE     C29      CEL1    -0.150000       12.0110           0
      3599 MEMB     30       POPE     H91      HEL1     0.150000       1.00800           0
      3600 MEMB     30       POPE     C210     CEL1    -0.150000       12.0110           0
      3601 MEMB     30       POPE     H101     HEL1     0.150000       1.00800           0
      3602 MEMB     30       POPE     C211     CTL2    -0.180000       12.0110           0
      3603 MEMB     30       POPE     H11R     HAL2     0.900000E-01   1.00800           0
      3604 MEMB     30       POPE     H11S     HAL2     0.900000E-01   1.00800           0
      3605 MEMB     30       POPE     C212     CTL2    -0.180000       12.0110           0
      3606 MEMB     30       POPE     H12R     HAL2     0.900000E-01   1.00800           0
      3607 MEMB     30       POPE     H12S     HAL2     0.900000E-01   1.00800           0
      3608 MEMB     30       POPE     C213     CTL2    -0.180000       12.0110           0
      3609 MEMB     30       POPE     H13R     HAL2     0.900000E-01   1.00800           0
      3610 MEMB     30       POPE     H13S     HAL2     0.900000E-01   1.00800           0
      3611 MEMB     30       POPE     C214     CTL2    -0.180000       12.0110           0
      3612 MEMB     30       POPE     H14R     HAL2     0.900000E-01   1.00800           0
      3613 MEMB     30       POPE     H14S     HAL2     0.900000E-01   1.00800           0
      3614 MEMB     30       POPE     C215     CTL2    -0.180000       12.0110           0
      3615 MEMB     30       POPE     H15R     HAL2     0.900000E-01   1.00800           0
      3616 MEMB     30       POPE     H15S     HAL2     0.900000E-01   1.00800           0
      3617 MEMB     30       POPE     C216     CTL2    -0.180000       12.0110           0
      3618 MEMB     30       POPE     H16R     HAL2     0.900000E-01   1.00800           0
      3619 MEMB     30       POPE     H16S     HAL2     0.900000E-01   1.00800           0
      3620 MEMB     30       POPE     C217     CTL2    -0.180000       12.0110           0
      3621 MEMB     30       POPE     H17R     HAL2     0.900000E-01   1.00800           0
      3622 MEMB     30       POPE     H17S     HAL2     0.900000E-01   1.00800           0
      3623 MEMB     30       POPE     C218     CTL3    -0.270000       12.0110           0
      3624 MEMB     30       POPE     H18R     HAL3     0.900000E-01   1.00800           0
      3625 MEMB     30       POPE     H18S     HAL3     0.900000E-01   1.00800           0
      3626 MEMB     30       POPE     H18T     HAL3     0.900000E-01   1.00800           0
      3627 MEMB     30       POPE     C33      CTL2    -0.180000       12.0110           0
      3628 MEMB     30       POPE     H3X      HAL2     0.900000E-01   1.00800           0
      3629 MEMB     30       POPE     H3Y      HAL2     0.900000E-01   1.00800           0
      3630 MEMB     30       POPE     C34      CTL2    -0.180000       12.0110           0
      3631 MEMB     30       POPE     H4X      HAL2     0.900000E-01   1.00800           0
      3632 MEMB     30       POPE     H4Y      HAL2     0.900000E-01   1.00800           0
      3633 MEMB     30       POPE     C35      CTL2    -0.180000       12.0110           0
      3634 MEMB     30       POPE     H5X      HAL2     0.900000E-01   1.00800           0
      3635 MEMB     30       POPE     H5Y      HAL2     0.900000E-01   1.00800           0
      3636 MEMB     30       POPE     C36      CTL2    -0.180000       12.0110           0
      3637 MEMB     30       POPE     H6X      HAL2     0.900000E-01   1.00800           0
      3638 MEMB     30       POPE     H6Y      HAL2     0.900000E-01   1.00800           0
      3639 MEMB     30       POPE     C37      CTL2    -0.180000       12.0110           0
      3640 MEMB     30       POPE     H7X      HAL2     0.900000E-01   1.00800           0
      3641 MEMB     30       POPE     H7Y      HAL2     0.900000E-01   1.00800           0
      3642 MEMB     30       POPE     C38      CTL2    -0.180000       12.0110           0
      3643 MEMB     30       POPE     H8X      HAL2     0.900000E-01   1.00800           0
      3644 MEMB     30       POPE     H8Y      HAL2     0.900000E-01   1.00800           0
      3645 MEMB     30       POPE     C39      CTL2    -0.180000       12.0110           0
      3646 MEMB     30       POPE     H9X      HAL2     0.900000E-01   1.00800           0
      3647 MEMB     30       POPE     H9Y      HAL2     0.900000E-01   1.00800           0
      3648 MEMB     30       POPE     C310     CTL2    -0.180000       12.0110           0
      3649 MEMB     30       POPE     H10X     HAL2     0.900000E-01   1.00800           0
      3650 MEMB     30       POPE     H10Y     HAL2     0.900000E-01   1.00800           0
      3651 MEMB     30       POPE     C311     CTL2    -0.180000       12.0110           0
      3652 MEMB     30       POPE     H11X     HAL2     0.900000E-01   1.00800           0
      3653 MEMB     30       POPE     H11Y     HAL2     0.900000E-01   1.00800           0
      3654 MEMB     30       POPE     C312     CTL2    -0.180000       12.0110           0
      3655 MEMB     30       POPE     H12X     HAL2     0.900000E-01   1.00800           0
      3656 MEMB     30       POPE     H12Y     HAL2     0.900000E-01   1.00800           0
      3657 MEMB     30       POPE     C313     CTL2    -0.180000       12.0110           0
      3658 MEMB     30       POPE     H13X     HAL2     0.900000E-01   1.00800           0
      3659 MEMB     30       POPE     H13Y     HAL2     0.900000E-01   1.00800           0
      3660 MEMB     30       POPE     C314     CTL2    -0.180000       12.0110           0
      3661 MEMB     30       POPE     H14X     HAL2     0.900000E-01   1.00800           0
      3662 MEMB     30       POPE     H14Y     HAL2     0.900000E-01   1.00800           0
      3663 MEMB     30       POPE     C315     CTL2    -0.180000       12.0110           0
      3664 MEMB     30       POPE     H15X     HAL2     0.900000E-01   1.00800           0
      3665 MEMB     30       POPE     H15Y     HAL2     0.900000E-01   1.00800           0
      3666 MEMB     30       POPE     C316     CTL3    -0.270000       12.0110           0
      3667 MEMB     30       POPE     H16X     HAL3     0.900000E-01   1.00800           0
      3668 MEMB     30       POPE     H16Y     HAL3     0.900000E-01   1.00800           0
      3669 MEMB     30       POPE     H16Z     HAL3     0.900000E-01   1.00800           0
      3670 MEMB     31       POPE     N        NH3L    -0.300000       14.0070           0
      3671 MEMB     31       POPE     HN1      HCL      0.330000       1.00800           0
      3672 MEMB     31       POPE     HN2      HCL      0.330000       1.00800           0
      3673 MEMB     31       POPE     HN3      HCL      0.330000       1.00800           0
      3674 MEMB     31       POPE     C12      CTL2     0.130000       12.0110           0
      3675 MEMB     31       POPE     H12A     HAL2     0.900000E-01   1.00800           0
      3676 MEMB     31       POPE     H12B     HAL2     0.900000E-01   1.00800           0
      3677 MEMB     31       POPE     C11      CTL2    -0.800000E-01   12.0110           0
      3678 MEMB     31       POPE     H11A     HAL2     0.900000E-01   1.00800           0
      3679 MEMB     31       POPE     H11B     HAL2     0.900000E-01   1.00800           0
      3680 MEMB     31       POPE     P        PL        1.50000       30.9740           0
      3681 MEMB     31       POPE     O13      O2L     -0.780000       15.9994           0
      3682 MEMB     31       POPE     O14      O2L     -0.780000       15.9994           0
      3683 MEMB     31       POPE     O11      OSLP    -0.570000       15.9994           0
      3684 MEMB     31       POPE     O12      OSLP    -0.570000       15.9994           0
      3685 MEMB     31       POPE     C1       CTL2    -0.800000E-01   12.0110           0
      3686 MEMB     31       POPE     HA       HAL2     0.900000E-01   1.00800           0
      3687 MEMB     31       POPE     HB       HAL2     0.900000E-01   1.00800           0
      3688 MEMB     31       POPE     C2       CTL1     0.170000       12.0110           0
      3689 MEMB     31       POPE     HS       HAL1     0.900000E-01   1.00800           0
      3690 MEMB     31       POPE     O21      OSL     -0.490000       15.9994           0
      3691 MEMB     31       POPE     C21      CL       0.900000       12.0110           0
      3692 MEMB     31       POPE     O22      OBL     -0.630000       15.9994           0
      3693 MEMB     31       POPE     C22      CTL2    -0.220000       12.0110           0
      3694 MEMB     31       POPE     H2R      HAL2     0.900000E-01   1.00800           0
      3695 MEMB     31       POPE     H2S      HAL2     0.900000E-01   1.00800           0
      3696 MEMB     31       POPE     C3       CTL2     0.800000E-01   12.0110           0
      3697 MEMB     31       POPE     HX       HAL2     0.900000E-01   1.00800           0
      3698 MEMB     31       POPE     HY       HAL2     0.900000E-01   1.00800           0
      3699 MEMB     31       POPE     O31      OSL     -0.490000       15.9994           0
      3700 MEMB     31       POPE     C31      CL       0.900000       12.0110           0
      3701 MEMB     31       POPE     O32      OBL     -0.630000       15.9994           0
      3702 MEMB     31       POPE     C32      CTL2    -0.220000       12.0110           0
      3703 MEMB     31       POPE     H2X      HAL2     0.900000E-01   1.00800           0
      3704 MEMB     31       POPE     H2Y      HAL2     0.900000E-01   1.00800           0
      3705 MEMB     31       POPE     C23      CTL2    -0.180000       12.0110           0
      3706 MEMB     31       POPE     H3R      HAL2     0.900000E-01   1.00800           0
      3707 MEMB     31       POPE     H3S      HAL2     0.900000E-01   1.00800           0
      3708 MEMB     31       POPE     C24      CTL2    -0.180000       12.0110           0
      3709 MEMB     31       POPE     H4R      HAL2     0.900000E-01   1.00800           0
      3710 MEMB     31       POPE     H4S      HAL2     0.900000E-01   1.00800           0
      3711 MEMB     31       POPE     C25      CTL2    -0.180000       12.0110           0
      3712 MEMB     31       POPE     H5R      HAL2     0.900000E-01   1.00800           0
      3713 MEMB     31       POPE     H5S      HAL2     0.900000E-01   1.00800           0
      3714 MEMB     31       POPE     C26      CTL2    -0.180000       12.0110           0
      3715 MEMB     31       POPE     H6R      HAL2     0.900000E-01   1.00800           0
      3716 MEMB     31       POPE     H6S      HAL2     0.900000E-01   1.00800           0
      3717 MEMB     31       POPE     C27      CTL2    -0.180000       12.0110           0
      3718 MEMB     31       POPE     H7R      HAL2     0.900000E-01   1.00800           0
      3719 MEMB     31       POPE     H7S      HAL2     0.900000E-01   1.00800           0
      3720 MEMB     31       POPE     C28      CTL2    -0.180000       12.0110           0
      3721 MEMB     31       POPE     H8R      HAL2     0.900000E-01   1.00800           0
      3722 MEMB     31       POPE     H8S      HAL2     0.900000E-01   1.00800           0
      3723 MEMB     31       POPE     C29      CEL1    -0.150000       12.0110           0
      3724 MEMB     31       POPE     H91      HEL1     0.150000       1.00800           0
      3725 MEMB     31       POPE     C210     CEL1    -0.150000       12.0110           0
      3726 MEMB     31       POPE     H101     HEL1     0.150000       1.00800           0
      3727 MEMB     31       POPE     C211     CTL2    -0.180000       12.0110           0
      3728 MEMB     31       POPE     H11R     HAL2     0.900000E-01   1.00800           0
      3729 MEMB     31       POPE     H11S     HAL2     0.900000E-01   1.00800           0
      3730 MEMB     31       POPE     C212     CTL2    -0.180000       12.0110           0
      3731 MEMB     31       POPE     H12R     HAL2     0.900000E-01   1.00800           0
      3732 MEMB     31       POPE     H12S     HAL2     0.900000E-01   1.00800           0
      3733 MEMB     31       POPE     C213     CTL2    -0.180000       12.0110           0
      3734 MEMB     31       POPE     H13R     HAL2     0.900000E-01   1.00800           0
      3735 MEMB     31       POPE     H13S     HAL2     0.900000E-01   1.00800           0
      3736 MEMB     31       POPE     C214     CTL2    -0.180000       12.0110           0
      3737 MEMB     31       POPE     H14R     HAL2     0.900000E-01   1.00800           0
      3738 MEMB     31       POPE     H14S     HAL2     0.900000E-01   1.00800           0
      3739 MEMB     31       POPE     C215     CTL2    -0.180000       12.0110           0
      3740 MEMB     31       POPE     H15R     HAL2     0.900000E-01   1.00800           0
      3741 MEMB     31       POPE     H15S     HAL2     0.900000E-01   1.00800           0
      3742 MEMB     31       POPE     C216     CTL2    -0.180000       12.0110           0
      3743 MEMB     31       POPE     H16R     HAL2     0.900000E-01   1.00800           0
      3744 MEMB     31       POPE     H16S     HAL2     0.900000E-01   1.00800           0
      3745 MEMB     31       POPE     C217     CTL2    -0.180000       12.0110           0
      3746 MEMB     31       POPE     H17R     HAL2     0.900000E-01   1.00800           0
      3747 MEMB     31       POPE     H17S     HAL2     0.900000E-01   1.00800           0
      3748 MEMB     31       POPE     C218     CTL3    -0.270000       12.0110           0
      3749 MEMB     31       POPE     H18R     HAL3     0.900000E-01   1.00800           0
      3750 MEMB     31       POPE     H18S     HAL3     0.900000E-01   1.00800           0
      3751 MEMB     31       POPE     H18T     HAL3     0.900000E-01   1.00800           0
      3752 MEMB     31       POPE     C33      CTL2    -0.180000       12.0110           0
      3753 MEMB     31       POPE     H3X      HAL2     0.900000E-01   1.00800           0
      3754 MEMB     31       POPE     H3Y      HAL2     0.900000E-01   1.00800           0
      3755 MEMB     31       POPE     C34      CTL2    -0.180000       12.0110           0
      3756 MEMB     31       POPE     H4X      HAL2     0.900000E-01   1.00800           0
      3757 MEMB     31       POPE     H4Y      HAL2     0.900000E-01   1.00800           0
      3758 MEMB     31       POPE     C35      CTL2    -0.180000       12.0110           0
      3759 MEMB     31       POPE     H5X      HAL2     0.900000E-01   1.00800           0
      3760 MEMB     31       POPE     H5Y      HAL2     0.900000E-01   1.00800           0
      3761 MEMB     31       POPE     C36      CTL2    -0.180000       12.0110           0
      3762 MEMB     31       POPE     H6X      HAL2     0.900000E-01   1.00800           0
      3763 MEMB     31       POPE     H6Y      HAL2     0.900000E-01   1.00800           0
      3764 MEMB     31       POPE     C37      CTL2    -0.180000       12.0110           0
      3765 MEMB     31       POPE     H7X      HAL2     0.900000E-01   1.00800           0
      3766 MEMB     31       POPE     H7Y      HAL2     0.900000E-01   1.00800           0
      3767 MEMB     31       POPE     C38      CTL2    -0.180000       12.0110           0
      3768 MEMB     31       POPE     H8X      HAL2     0.900000E-01   1.00800           0
      3769 MEMB     31       POPE     H8Y      HAL2     0.900000E-01   1.00800           0
      3770 MEMB     31       POPE     C39      CTL2    -0.180000       12.0110           0
      3771 MEMB     31       POPE     H9X      HAL2     0.900000E-01   1.00800           0
      3772 MEMB     31       POPE     H9Y      HAL2     0.900000E-01   1.00800           0
      3773 MEMB     31       POPE     C310     CTL2    -0.180000       12.0110           0
      3774 MEMB     31       POPE     H10X     HAL2     0.900000E-01   1.00800           0
      3775 MEMB     31       POPE     H10Y     HAL2     0.900000E-01   1.00800           0
      3776 MEMB     31       POPE     C311     CTL2    -0.180000       12.0110           0
      3777 MEMB     31       POPE     H11X     HAL2     0.900000E-01   1.00800           0
      3778 MEMB     31       POPE     H11Y     HAL2     0.900000E-01   1.00800           0
      3779 MEMB     31       POPE     C312     CTL2    -0.180000       12.0110           0
      3780 MEMB     31       POPE     H12X     HAL2     0.900000E-01   1.00800           0
      3781 MEMB     31       POPE     H12Y     HAL2     0.900000E-01   1.00800           0
      3782 MEMB     31       POPE     C313     CTL2    -0.180000       12.0110           0
      3783 MEMB     31       POPE     H13X     HAL2     0.900000E-01   1.00800           0
      3784 MEMB     31       POPE     H13Y     HAL2     0.900000E-01   1.00800           0
      3785 MEMB     31       POPE     C314     CTL2    -0.180000       12.0110           0
      3786 MEMB     31       POPE     H14X     HAL2     0.900000E-01   1.00800           0
      3787 MEMB     31       POPE     H14Y     HAL2     0.900000E-01   1.00800           0
      3788 MEMB     31       POPE     C315     CTL2    -0.180000       12.0110           0
      3789 MEMB     31       POPE     H15X     HAL2     0.900000E-01   1.00800           0
      3790 MEMB     31       POPE     H15Y     HAL2     0.900000E-01   1.00800           0
      3791 MEMB     31       POPE     C316     CTL3    -0.270000       12.0110           0
      3792 MEMB     31       POPE     H16X     HAL3     0.900000E-01   1.00800           0
      3793 MEMB     31       POPE     H16Y     HAL3     0.900000E-01   1.00800           0
      3794 MEMB     31       POPE     H16Z     HAL3     0.900000E-01   1.00800           0
      3795 MEMB     32       PYPG     C13      CTL2     0.500000E-01   12.0110           0
      3796 MEMB     32       PYPG     H13A     HAL2     0.900000E-01   1.00800           0
      3797 MEMB     32       PYPG     H13B     HAL2     0.900000E-01   1.00800           0
      3798 MEMB     32       PYPG     OC3      OHL     -0.660000       15.9994           0
      3799 MEMB     32       PYPG     HO3      HOL      0.430000       1.00800           0
      3800 MEMB     32       PYPG     C12      CTL1     0.140000       12.0110           0
      3801 MEMB     32       PYPG     H12A     HAL1     0.900000E-01   1.00800           0
      3802 MEMB     32       PYPG     OC2      OHL     -0.660000       15.9994           0
      3803 MEMB     32       PYPG     HO2      HOL      0.430000       1.00800           0
      3804 MEMB     32       PYPG     C11      CTL2    -0.800000E-01   12.0110           0
      3805 MEMB     32       PYPG     H11A     HAL2     0.900000E-01   1.00800           0
      3806 MEMB     32       PYPG     H11B     HAL2     0.900000E-01   1.00800           0
      3807 MEMB     32       PYPG     P        PL        1.50000       30.9740           0
      3808 MEMB     32       PYPG     O13      O2L     -0.780000       15.9994           0
      3809 MEMB     32       PYPG     O14      O2L     -0.780000       15.9994           0
      3810 MEMB     32       PYPG     O11      OSLP    -0.570000       15.9994           0
      3811 MEMB     32       PYPG     O12      OSLP    -0.570000       15.9994           0
      3812 MEMB     32       PYPG     C1       CTL2    -0.800000E-01   12.0110           0
      3813 MEMB     32       PYPG     HA       HAL2     0.900000E-01   1.00800           0
      3814 MEMB     32       PYPG     HB       HAL2     0.900000E-01   1.00800           0
      3815 MEMB     32       PYPG     C2       CTL1     0.170000       12.0110           0
      3816 MEMB     32       PYPG     HS       HAL1     0.900000E-01   1.00800           0
      3817 MEMB     32       PYPG     O21      OSL     -0.490000       15.9994           0
      3818 MEMB     32       PYPG     C21      CL       0.900000       12.0110           0
      3819 MEMB     32       PYPG     O22      OBL     -0.630000       15.9994           0
      3820 MEMB     32       PYPG     C22      CTL2    -0.220000       12.0110           0
      3821 MEMB     32       PYPG     H2R      HAL2     0.900000E-01   1.00800           0
      3822 MEMB     32       PYPG     H2S      HAL2     0.900000E-01   1.00800           0
      3823 MEMB     32       PYPG     C3       CTL2     0.800000E-01   12.0110           0
      3824 MEMB     32       PYPG     HX       HAL2     0.900000E-01   1.00800           0
      3825 MEMB     32       PYPG     HY       HAL2     0.900000E-01   1.00800           0
      3826 MEMB     32       PYPG     O31      OSL     -0.490000       15.9994           0
      3827 MEMB     32       PYPG     C31      CL       0.900000       12.0110           0
      3828 MEMB     32       PYPG     O32      OBL     -0.630000       15.9994           0
      3829 MEMB     32       PYPG     C32      CTL2    -0.220000       12.0110           0
      3830 MEMB     32       PYPG     H2X      HAL2     0.900000E-01   1.00800           0
      3831 MEMB     32       PYPG     H2Y      HAL2     0.900000E-01   1.00800           0
      3832 MEMB     32       PYPG     C23      CTL2    -0.180000       12.0110           0
      3833 MEMB     32       PYPG     H3R      HAL2     0.900000E-01   1.00800           0
      3834 MEMB     32       PYPG     H3S      HAL2     0.900000E-01   1.00800           0
      3835 MEMB     32       PYPG     C24      CTL2    -0.180000       12.0110           0
      3836 MEMB     32       PYPG     H4R      HAL2     0.900000E-01   1.00800           0
      3837 MEMB     32       PYPG     H4S      HAL2     0.900000E-01   1.00800           0
      3838 MEMB     32       PYPG     C25      CTL2    -0.180000       12.0110           0
      3839 MEMB     32       PYPG     H5R      HAL2     0.900000E-01   1.00800           0
      3840 MEMB     32       PYPG     H5S      HAL2     0.900000E-01   1.00800           0
      3841 MEMB     32       PYPG     C26      CTL2    -0.180000       12.0110           0
      3842 MEMB     32       PYPG     H6R      HAL2     0.900000E-01   1.00800           0
      3843 MEMB     32       PYPG     H6S      HAL2     0.900000E-01   1.00800           0
      3844 MEMB     32       PYPG     C27      CTL2    -0.180000       12.0110           0
      3845 MEMB     32       PYPG     H7R      HAL2     0.900000E-01   1.00800           0
      3846 MEMB     32       PYPG     H7S      HAL2     0.900000E-01   1.00800           0
      3847 MEMB     32       PYPG     C28      CTL2    -0.180000       12.0110           0
      3848 MEMB     32       PYPG     H8R      HAL2     0.900000E-01   1.00800           0
      3849 MEMB     32       PYPG     H8S      HAL2     0.900000E-01   1.00800           0
      3850 MEMB     32       PYPG     C29      CEL1    -0.150000       12.0110           0
      3851 MEMB     32       PYPG     H9R      HEL1     0.150000       1.00800           0
      3852 MEMB     32       PYPG     C210     CEL1    -0.150000       12.0110           0
      3853 MEMB     32       PYPG     H10R     HEL1     0.150000       1.00800           0
      3854 MEMB     32       PYPG     C211     CTL2    -0.180000       12.0110           0
      3855 MEMB     32       PYPG     H11R     HAL2     0.900000E-01   1.00800           0
      3856 MEMB     32       PYPG     H11S     HAL2     0.900000E-01   1.00800           0
      3857 MEMB     32       PYPG     C212     CTL2    -0.180000       12.0110           0
      3858 MEMB     32       PYPG     H12R     HAL2     0.900000E-01   1.00800           0
      3859 MEMB     32       PYPG     H12S     HAL2     0.900000E-01   1.00800           0
      3860 MEMB     32       PYPG     C213     CTL2    -0.180000       12.0110           0
      3861 MEMB     32       PYPG     H13R     HAL2     0.900000E-01   1.00800           0
      3862 MEMB     32       PYPG     H13S     HAL2     0.900000E-01   1.00800           0
      3863 MEMB     32       PYPG     C214     CTL2    -0.180000       12.0110           0
      3864 MEMB     32       PYPG     H14R     HAL2     0.900000E-01   1.00800           0
      3865 MEMB     32       PYPG     H14S     HAL2     0.900000E-01   1.00800           0
      3866 MEMB     32       PYPG     C215     CTL2    -0.180000       12.0110           0
      3867 MEMB     32       PYPG     H15R     HAL2     0.900000E-01   1.00800           0
      3868 MEMB     32       PYPG     H15S     HAL2     0.900000E-01   1.00800           0
      3869 MEMB     32       PYPG     C216     CTL3    -0.270000       12.0110           0
      3870 MEMB     32       PYPG     H16R     HAL3     0.900000E-01   1.00800           0
      3871 MEMB     32       PYPG     H16S     HAL3     0.900000E-01   1.00800           0
      3872 MEMB     32       PYPG     H16T     HAL3     0.900000E-01   1.00800           0
      3873 MEMB     32       PYPG     C33      CTL2    -0.180000       12.0110           0
      3874 MEMB     32       PYPG     H3X      HAL2     0.900000E-01   1.00800           0
      3875 MEMB     32       PYPG     H3Y      HAL2     0.900000E-01   1.00800           0
      3876 MEMB     32       PYPG     C34      CTL2    -0.180000       12.0110           0
      3877 MEMB     32       PYPG     H4X      HAL2     0.900000E-01   1.00800           0
      3878 MEMB     32       PYPG     H4Y      HAL2     0.900000E-01   1.00800           0
      3879 MEMB     32       PYPG     C35      CTL2    -0.180000       12.0110           0
      3880 MEMB     32       PYPG     H5X      HAL2     0.900000E-01   1.00800           0
      3881 MEMB     32       PYPG     H5Y      HAL2     0.900000E-01   1.00800           0
      3882 MEMB     32       PYPG     C36      CTL2    -0.180000       12.0110           0
      3883 MEMB     32       PYPG     H6X      HAL2     0.900000E-01   1.00800           0
      3884 MEMB     32       PYPG     H6Y      HAL2     0.900000E-01   1.00800           0
      3885 MEMB     32       PYPG     C37      CTL2    -0.180000       12.0110           0
      3886 MEMB     32       PYPG     H7X      HAL2     0.900000E-01   1.00800           0
      3887 MEMB     32       PYPG     H7Y      HAL2     0.900000E-01   1.00800           0
      3888 MEMB     32       PYPG     C38      CTL2    -0.180000       12.0110           0
      3889 MEMB     32       PYPG     H8X      HAL2     0.900000E-01   1.00800           0
      3890 MEMB     32       PYPG     H8Y      HAL2     0.900000E-01   1.00800           0
      3891 MEMB     32       PYPG     C39      CTL2    -0.180000       12.0110           0
      3892 MEMB     32       PYPG     H9X      HAL2     0.900000E-01   1.00800           0
      3893 MEMB     32       PYPG     H9Y      HAL2     0.900000E-01   1.00800           0
      3894 MEMB     32       PYPG     C310     CTL2    -0.180000       12.0110           0
      3895 MEMB     32       PYPG     H10X     HAL2     0.900000E-01   1.00800           0
      3896 MEMB     32       PYPG     H10Y     HAL2     0.900000E-01   1.00800           0
      3897 MEMB     32       PYPG     C311     CTL2    -0.180000       12.0110           0
      3898 MEMB     32       PYPG     H11X     HAL2     0.900000E-01   1.00800           0
      3899 MEMB     32       PYPG     H11Y     HAL2     0.900000E-01   1.00800           0
      3900 MEMB     32       PYPG     C312     CTL2    -0.180000       12.0110           0
      3901 MEMB     32       PYPG     H12X     HAL2     0.900000E-01   1.00800           0
      3902 MEMB     32       PYPG     H12Y     HAL2     0.900000E-01   1.00800           0
      3903 MEMB     32       PYPG     C313     CTL2    -0.180000       12.0110           0
      3904 MEMB     32       PYPG     H13X     HAL2     0.900000E-01   1.00800           0
      3905 MEMB     32       PYPG     H13Y     HAL2     0.900000E-01   1.00800           0
      3906 MEMB     32       PYPG     C314     CTL2    -0.180000       12.0110           0
      3907 MEMB     32       PYPG     H14X     HAL2     0.900000E-01   1.00800           0
      3908 MEMB     32       PYPG     H14Y     HAL2     0.900000E-01   1.00800           0
      3909 MEMB     32       PYPG     C315     CTL2    -0.180000       12.0110           0
      3910 MEMB     32       PYPG     H15X     HAL2     0.900000E-01   1.00800           0
      3911 MEMB     32       PYPG     H15Y     HAL2     0.900000E-01   1.00800           0
      3912 MEMB     32       PYPG     C316     CTL3    -0.270000       12.0110           0
      3913 MEMB     32       PYPG     H16X     HAL3     0.900000E-01   1.00800           0
      3914 MEMB     32       PYPG     H16Y     HAL3     0.900000E-01   1.00800           0
      3915 MEMB     32       PYPG     H16Z     HAL3     0.900000E-01   1.00800           0
      3916 MEMB     33       PMPE     N        NH3L    -0.300000       14.0070           0
      3917 MEMB     33       PMPE     HN1      HCL      0.330000       1.00800           0
      3918 MEMB     33       PMPE     HN2      HCL      0.330000       1.00800           0
      3919 MEMB     33       PMPE     HN3      HCL      0.330000       1.00800           0
      3920 MEMB     33       PMPE     C12      CTL2     0.130000       12.0110           0
      3921 MEMB     33       PMPE     H12A     HAL2     0.900000E-01   1.00800           0
      3922 MEMB     33       PMPE     H12B     HAL2     0.900000E-01   1.00800           0
      3923 MEMB     33       PMPE     C11      CTL2    -0.800000E-01   12.0110           0
      3924 MEMB     33       PMPE     H11A     HAL2     0.900000E-01   1.00800           0
      3925 MEMB     33       PMPE     H11B     HAL2     0.900000E-01   1.00800           0
      3926 MEMB     33       PMPE     P        PL        1.50000       30.9740           0
      3927 MEMB     33       PMPE     O13      O2L     -0.780000       15.9994           0
      3928 MEMB     33       PMPE     O14      O2L     -0.780000       15.9994           0
      3929 MEMB     33       PMPE     O11      OSLP    -0.570000       15.9994           0
      3930 MEMB     33       PMPE     O12      OSLP    -0.570000       15.9994           0
      3931 MEMB     33       PMPE     C1       CTL2    -0.800000E-01   12.0110           0
      3932 MEMB     33       PMPE     HA       HAL2     0.900000E-01   1.00800           0
      3933 MEMB     33       PMPE     HB       HAL2     0.900000E-01   1.00800           0
      3934 MEMB     33       PMPE     C2       CTL1     0.170000       12.0110           0
      3935 MEMB     33       PMPE     HS       HAL1     0.900000E-01   1.00800           0
      3936 MEMB     33       PMPE     O21      OSL     -0.490000       15.9994           0
      3937 MEMB     33       PMPE     C21      CL       0.900000       12.0110           0
      3938 MEMB     33       PMPE     O22      OBL     -0.630000       15.9994           0
      3939 MEMB     33       PMPE     C22      CTL2    -0.220000       12.0110           0
      3940 MEMB     33       PMPE     H2R      HAL2     0.900000E-01   1.00800           0
      3941 MEMB     33       PMPE     H2S      HAL2     0.900000E-01   1.00800           0
      3942 MEMB     33       PMPE     C3       CTL2     0.800000E-01   12.0110           0
      3943 MEMB     33       PMPE     HX       HAL2     0.900000E-01   1.00800           0
      3944 MEMB     33       PMPE     HY       HAL2     0.900000E-01   1.00800           0
      3945 MEMB     33       PMPE     O31      OSL     -0.490000       15.9994           0
      3946 MEMB     33       PMPE     C31      CL       0.900000       12.0110           0
      3947 MEMB     33       PMPE     O32      OBL     -0.630000       15.9994           0
      3948 MEMB     33       PMPE     C32      CTL2    -0.220000       12.0110           0
      3949 MEMB     33       PMPE     H2X      HAL2     0.900000E-01   1.00800           0
      3950 MEMB     33       PMPE     H2Y      HAL2     0.900000E-01   1.00800           0
      3951 MEMB     33       PMPE     C23      CTL2    -0.180000       12.0110           0
      3952 MEMB     33       PMPE     H3R      HAL2     0.900000E-01   1.00800           0
      3953 MEMB     33       PMPE     H3S      HAL2     0.900000E-01   1.00800           0
      3954 MEMB     33       PMPE     C24      CTL2    -0.180000       12.0110           0
      3955 MEMB     33       PMPE     H4R      HAL2     0.900000E-01   1.00800           0
      3956 MEMB     33       PMPE     H4S      HAL2     0.900000E-01   1.00800           0
      3957 MEMB     33       PMPE     C25      CTL2    -0.180000       12.0110           0
      3958 MEMB     33       PMPE     H5R      HAL2     0.900000E-01   1.00800           0
      3959 MEMB     33       PMPE     H5S      HAL2     0.900000E-01   1.00800           0
      3960 MEMB     33       PMPE     C26      CTL2    -0.180000       12.0110           0
      3961 MEMB     33       PMPE     H6R      HAL2     0.900000E-01   1.00800           0
      3962 MEMB     33       PMPE     H6S      HAL2     0.900000E-01   1.00800           0
      3963 MEMB     33       PMPE     C27      CTL2    -0.180000       12.0110           0
      3964 MEMB     33       PMPE     H7R      HAL2     0.900000E-01   1.00800           0
      3965 MEMB     33       PMPE     H7S      HAL2     0.900000E-01   1.00800           0
      3966 MEMB     33       PMPE     C28      CTL2    -0.180000       12.0110           0
      3967 MEMB     33       PMPE     H8R      HAL2     0.900000E-01   1.00800           0
      3968 MEMB     33       PMPE     H8S      HAL2     0.900000E-01   1.00800           0
      3969 MEMB     33       PMPE     C29      CG3RC1  -0.900000E-01   12.0110           0
      3970 MEMB     33       PMPE     H9R      HGA1     0.900000E-01   1.00800           0
      3971 MEMB     33       PMPE     C217     CG3C31  -0.180000       12.0110           0
      3972 MEMB     33       PMPE     H17R     HGA2     0.900000E-01   1.00800           0
      3973 MEMB     33       PMPE     H17S     HGA2     0.900000E-01   1.00800           0
      3974 MEMB     33       PMPE     C210     CG3RC1  -0.900000E-01   12.0110           0
      3975 MEMB     33       PMPE     H10R     HGA1     0.900000E-01   1.00800           0
      3976 MEMB     33       PMPE     C211     CTL2    -0.180000       12.0110           0
      3977 MEMB     33       PMPE     H11R     HAL2     0.900000E-01   1.00800           0
      3978 MEMB     33       PMPE     H11S     HAL2     0.900000E-01   1.00800           0
      3979 MEMB     33       PMPE     C212     CTL2    -0.180000       12.0110           0
      3980 MEMB     33       PMPE     H12R     HAL2     0.900000E-01   1.00800           0
      3981 MEMB     33       PMPE     H12S     HAL2     0.900000E-01   1.00800           0
      3982 MEMB     33       PMPE     C213     CTL2    -0.180000       12.0110           0
      3983 MEMB     33       PMPE     H13R     HAL2     0.900000E-01   1.00800           0
      3984 MEMB     33       PMPE     H13S     HAL2     0.900000E-01   1.00800           0
      3985 MEMB     33       PMPE     C214     CTL2    -0.180000       12.0110           0
      3986 MEMB     33       PMPE     H14R     HAL2     0.900000E-01   1.00800           0
      3987 MEMB     33       PMPE     H14S     HAL2     0.900000E-01   1.00800           0
      3988 MEMB     33       PMPE     C215     CTL2    -0.180000       12.0110           0
      3989 MEMB     33       PMPE     H15R     HAL2     0.900000E-01   1.00800           0
      3990 MEMB     33       PMPE     H15S     HAL2     0.900000E-01   1.00800           0
      3991 MEMB     33       PMPE     C216     CTL3    -0.270000       12.0110           0
      3992 MEMB     33       PMPE     H16R     HAL3     0.900000E-01   1.00800           0
      3993 MEMB     33       PMPE     H16S     HAL3     0.900000E-01   1.00800           0
      3994 MEMB     33       PMPE     H16T     HAL3     0.900000E-01   1.00800           0
      3995 MEMB     33       PMPE     C33      CTL2    -0.180000       12.0110           0
      3996 MEMB     33       PMPE     H3X      HAL2     0.900000E-01   1.00800           0
      3997 MEMB     33       PMPE     H3Y      HAL2     0.900000E-01   1.00800           0
      3998 MEMB     33       PMPE     C34      CTL2    -0.180000       12.0110           0
      3999 MEMB     33       PMPE     H4X      HAL2     0.900000E-01   1.00800           0
      4000 MEMB     33       PMPE     H4Y      HAL2     0.900000E-01   1.00800           0
      4001 MEMB     33       PMPE     C35      CTL2    -0.180000       12.0110           0
      4002 MEMB     33       PMPE     H5X      HAL2     0.900000E-01   1.00800           0
      4003 MEMB     33       PMPE     H5Y      HAL2     0.900000E-01   1.00800           0
      4004 MEMB     33       PMPE     C36      CTL2    -0.180000       12.0110           0
      4005 MEMB     33       PMPE     H6X      HAL2     0.900000E-01   1.00800           0
      4006 MEMB     33       PMPE     H6Y      HAL2     0.900000E-01   1.00800           0
      4007 MEMB     33       PMPE     C37      CTL2    -0.180000       12.0110           0
      4008 MEMB     33       PMPE     H7X      HAL2     0.900000E-01   1.00800           0
      4009 MEMB     33       PMPE     H7Y      HAL2     0.900000E-01   1.00800           0
      4010 MEMB     33       PMPE     C38      CTL2    -0.180000       12.0110           0
      4011 MEMB     33       PMPE     H8X      HAL2     0.900000E-01   1.00800           0
      4012 MEMB     33       PMPE     H8Y      HAL2     0.900000E-01   1.00800           0
      4013 MEMB     33       PMPE     C39      CTL2    -0.180000       12.0110           0
      4014 MEMB     33       PMPE     H9X      HAL2     0.900000E-01   1.00800           0
      4015 MEMB     33       PMPE     H9Y      HAL2     0.900000E-01   1.00800           0
      4016 MEMB     33       PMPE     C310     CTL2    -0.180000       12.0110           0
      4017 MEMB     33       PMPE     H10X     HAL2     0.900000E-01   1.00800           0
      4018 MEMB     33       PMPE     H10Y     HAL2     0.900000E-01   1.00800           0
      4019 MEMB     33       PMPE     C311     CTL2    -0.180000       12.0110           0
      4020 MEMB     33       PMPE     H11X     HAL2     0.900000E-01   1.00800           0
      4021 MEMB     33       PMPE     H11Y     HAL2     0.900000E-01   1.00800           0
      4022 MEMB     33       PMPE     C312     CTL2    -0.180000       12.0110           0
      4023 MEMB     33       PMPE     H12X     HAL2     0.900000E-01   1.00800           0
      4024 MEMB     33       PMPE     H12Y     HAL2     0.900000E-01   1.00800           0
      4025 MEMB     33       PMPE     C313     CTL2    -0.180000       12.0110           0
      4026 MEMB     33       PMPE     H13X     HAL2     0.900000E-01   1.00800           0
      4027 MEMB     33       PMPE     H13Y     HAL2     0.900000E-01   1.00800           0
      4028 MEMB     33       PMPE     C314     CTL2    -0.180000       12.0110           0
      4029 MEMB     33       PMPE     H14X     HAL2     0.900000E-01   1.00800           0
      4030 MEMB     33       PMPE     H14Y     HAL2     0.900000E-01   1.00800           0
      4031 MEMB     33       PMPE     C315     CTL2    -0.180000       12.0110           0
      4032 MEMB     33       PMPE     H15X     HAL2     0.900000E-01   1.00800           0
      4033 MEMB     33       PMPE     H15Y     HAL2     0.900000E-01   1.00800           0
      4034 MEMB     33       PMPE     C316     CTL3    -0.270000       12.0110           0
      4035 MEMB     33       PMPE     H16X     HAL3     0.900000E-01   1.00800           0
      4036 MEMB     33       PMPE     H16Y     HAL3     0.900000E-01   1.00800           0
      4037 MEMB     33       PMPE     H16Z     HAL3     0.900000E-01   1.00800           0
      4038 MEMB     34       PYPG     C13      CTL2     0.500000E-01   12.0110           0
      4039 MEMB     34       PYPG     H13A     HAL2     0.900000E-01   1.00800           0
      4040 MEMB     34       PYPG     H13B     HAL2     0.900000E-01   1.00800           0
      4041 MEMB     34       PYPG     OC3      OHL     -0.660000       15.9994           0
      4042 MEMB     34       PYPG     HO3      HOL      0.430000       1.00800           0
      4043 MEMB     34       PYPG     C12      CTL1     0.140000       12.0110           0
      4044 MEMB     34       PYPG     H12A     HAL1     0.900000E-01   1.00800           0
      4045 MEMB     34       PYPG     OC2      OHL     -0.660000       15.9994           0
      4046 MEMB     34       PYPG     HO2      HOL      0.430000       1.00800           0
      4047 MEMB     34       PYPG     C11      CTL2    -0.800000E-01   12.0110           0
      4048 MEMB     34       PYPG     H11A     HAL2     0.900000E-01   1.00800           0
      4049 MEMB     34       PYPG     H11B     HAL2     0.900000E-01   1.00800           0
      4050 MEMB     34       PYPG     P        PL        1.50000       30.9740           0
      4051 MEMB     34       PYPG     O13      O2L     -0.780000       15.9994           0
      4052 MEMB     34       PYPG     O14      O2L     -0.780000       15.9994           0
      4053 MEMB     34       PYPG     O11      OSLP    -0.570000       15.9994           0
      4054 MEMB     34       PYPG     O12      OSLP    -0.570000       15.9994           0
      4055 MEMB     34       PYPG     C1       CTL2    -0.800000E-01   12.0110           0
      4056 MEMB     34       PYPG     HA       HAL2     0.900000E-01   1.00800           0
      4057 MEMB     34       PYPG     HB       HAL2     0.900000E-01   1.00800           0
      4058 MEMB     34       PYPG     C2       CTL1     0.170000       12.0110           0
      4059 MEMB     34       PYPG     HS       HAL1     0.900000E-01   1.00800           0
      4060 MEMB     34       PYPG     O21      OSL     -0.490000       15.9994           0
      4061 MEMB     34       PYPG     C21      CL       0.900000       12.0110           0
      4062 MEMB     34       PYPG     O22      OBL     -0.630000       15.9994           0
      4063 MEMB     34       PYPG     C22      CTL2    -0.220000       12.0110           0
      4064 MEMB     34       PYPG     H2R      HAL2     0.900000E-01   1.00800           0
      4065 MEMB     34       PYPG     H2S      HAL2     0.900000E-01   1.00800           0
      4066 MEMB     34       PYPG     C3       CTL2     0.800000E-01   12.0110           0
      4067 MEMB     34       PYPG     HX       HAL2     0.900000E-01   1.00800           0
      4068 MEMB     34       PYPG     HY       HAL2     0.900000E-01   1.00800           0
      4069 MEMB     34       PYPG     O31      OSL     -0.490000       15.9994           0
      4070 MEMB     34       PYPG     C31      CL       0.900000       12.0110           0
      4071 MEMB     34       PYPG     O32      OBL     -0.630000       15.9994           0
      4072 MEMB     34       PYPG     C32      CTL2    -0.220000       12.0110           0
      4073 MEMB     34       PYPG     H2X      HAL2     0.900000E-01   1.00800           0
      4074 MEMB     34       PYPG     H2Y      HAL2     0.900000E-01   1.00800           0
      4075 MEMB     34       PYPG     C23      CTL2    -0.180000       12.0110           0
      4076 MEMB     34       PYPG     H3R      HAL2     0.900000E-01   1.00800           0
      4077 MEMB     34       PYPG     H3S      HAL2     0.900000E-01   1.00800           0
      4078 MEMB     34       PYPG     C24      CTL2    -0.180000       12.0110           0
      4079 MEMB     34       PYPG     H4R      HAL2     0.900000E-01   1.00800           0
      4080 MEMB     34       PYPG     H4S      HAL2     0.900000E-01   1.00800           0
      4081 MEMB     34       PYPG     C25      CTL2    -0.180000       12.0110           0
      4082 MEMB     34       PYPG     H5R      HAL2     0.900000E-01   1.00800           0
      4083 MEMB     34       PYPG     H5S      HAL2     0.900000E-01   1.00800           0
      4084 MEMB     34       PYPG     C26      CTL2    -0.180000       12.0110           0
      4085 MEMB     34       PYPG     H6R      HAL2     0.900000E-01   1.00800           0
      4086 MEMB     34       PYPG     H6S      HAL2     0.900000E-01   1.00800           0
      4087 MEMB     34       PYPG     C27      CTL2    -0.180000       12.0110           0
      4088 MEMB     34       PYPG     H7R      HAL2     0.900000E-01   1.00800           0
      4089 MEMB     34       PYPG     H7S      HAL2     0.900000E-01   1.00800           0
      4090 MEMB     34       PYPG     C28      CTL2    -0.180000       12.0110           0
      4091 MEMB     34       PYPG     H8R      HAL2     0.900000E-01   1.00800           0
      4092 MEMB     34       PYPG     H8S      HAL2     0.900000E-01   1.00800           0
      4093 MEMB     34       PYPG     C29      CEL1    -0.150000       12.0110           0
      4094 MEMB     34       PYPG     H9R      HEL1     0.150000       1.00800           0
      4095 MEMB     34       PYPG     C210     CEL1    -0.150000       12.0110           0
      4096 MEMB     34       PYPG     H10R     HEL1     0.150000       1.00800           0
      4097 MEMB     34       PYPG     C211     CTL2    -0.180000       12.0110           0
      4098 MEMB     34       PYPG     H11R     HAL2     0.900000E-01   1.00800           0
      4099 MEMB     34       PYPG     H11S     HAL2     0.900000E-01   1.00800           0
      4100 MEMB     34       PYPG     C212     CTL2    -0.180000       12.0110           0
      4101 MEMB     34       PYPG     H12R     HAL2     0.900000E-01   1.00800           0
      4102 MEMB     34       PYPG     H12S     HAL2     0.900000E-01   1.00800           0
      4103 MEMB     34       PYPG     C213     CTL2    -0.180000       12.0110           0
      4104 MEMB     34       PYPG     H13R     HAL2     0.900000E-01   1.00800           0
      4105 MEMB     34       PYPG     H13S     HAL2     0.900000E-01   1.00800           0
      4106 MEMB     34       PYPG     C214     CTL2    -0.180000       12.0110           0
      4107 MEMB     34       PYPG     H14R     HAL2     0.900000E-01   1.00800           0
      4108 MEMB     34       PYPG     H14S     HAL2     0.900000E-01   1.00800           0
      4109 MEMB     34       PYPG     C215     CTL2    -0.180000       12.0110           0
      4110 MEMB     34       PYPG     H15R     HAL2     0.900000E-01   1.00800           0
      4111 MEMB     34       PYPG     H15S     HAL2     0.900000E-01   1.00800           0
      4112 MEMB     34       PYPG     C216     CTL3    -0.270000       12.0110           0
      4113 MEMB     34       PYPG     H16R     HAL3     0.900000E-01   1.00800           0
      4114 MEMB     34       PYPG     H16S     HAL3     0.900000E-01   1.00800           0
      4115 MEMB     34       PYPG     H16T     HAL3     0.900000E-01   1.00800           0
      4116 MEMB     34       PYPG     C33      CTL2    -0.180000       12.0110           0
      4117 MEMB     34       PYPG     H3X      HAL2     0.900000E-01   1.00800           0
      4118 MEMB     34       PYPG     H3Y      HAL2     0.900000E-01   1.00800           0
      4119 MEMB     34       PYPG     C34      CTL2    -0.180000       12.0110           0
      4120 MEMB     34       PYPG     H4X      HAL2     0.900000E-01   1.00800           0
      4121 MEMB     34       PYPG     H4Y      HAL2     0.900000E-01   1.00800           0
      4122 MEMB     34       PYPG     C35      CTL2    -0.180000       12.0110           0
      4123 MEMB     34       PYPG     H5X      HAL2     0.900000E-01   1.00800           0
      4124 MEMB     34       PYPG     H5Y      HAL2     0.900000E-01   1.00800           0
      4125 MEMB     34       PYPG     C36      CTL2    -0.180000       12.0110           0
      4126 MEMB     34       PYPG     H6X      HAL2     0.900000E-01   1.00800           0
      4127 MEMB     34       PYPG     H6Y      HAL2     0.900000E-01   1.00800           0
      4128 MEMB     34       PYPG     C37      CTL2    -0.180000       12.0110           0
      4129 MEMB     34       PYPG     H7X      HAL2     0.900000E-01   1.00800           0
      4130 MEMB     34       PYPG     H7Y      HAL2     0.900000E-01   1.00800           0
      4131 MEMB     34       PYPG     C38      CTL2    -0.180000       12.0110           0
      4132 MEMB     34       PYPG     H8X      HAL2     0.900000E-01   1.00800           0
      4133 MEMB     34       PYPG     H8Y      HAL2     0.900000E-01   1.00800           0
      4134 MEMB     34       PYPG     C39      CTL2    -0.180000       12.0110           0
      4135 MEMB     34       PYPG     H9X      HAL2     0.900000E-01   1.00800           0
      4136 MEMB     34       PYPG     H9Y      HAL2     0.900000E-01   1.00800           0
      4137 MEMB     34       PYPG     C310     CTL2    -0.180000       12.0110           0
      4138 MEMB     34       PYPG     H10X     HAL2     0.900000E-01   1.00800           0
      4139 MEMB     34       PYPG     H10Y     HAL2     0.900000E-01   1.00800           0
      4140 MEMB     34       PYPG     C311     CTL2    -0.180000       12.0110           0
      4141 MEMB     34       PYPG     H11X     HAL2     0.900000E-01   1.00800           0
      4142 MEMB     34       PYPG     H11Y     HAL2     0.900000E-01   1.00800           0
      4143 MEMB     34       PYPG     C312     CTL2    -0.180000       12.0110           0
      4144 MEMB     34       PYPG     H12X     HAL2     0.900000E-01   1.00800           0
      4145 MEMB     34       PYPG     H12Y     HAL2     0.900000E-01   1.00800           0
      4146 MEMB     34       PYPG     C313     CTL2    -0.180000       12.0110           0
      4147 MEMB     34       PYPG     H13X     HAL2     0.900000E-01   1.00800           0
      4148 MEMB     34       PYPG     H13Y     HAL2     0.900000E-01   1.00800           0
      4149 MEMB     34       PYPG     C314     CTL2    -0.180000       12.0110           0
      4150 MEMB     34       PYPG     H14X     HAL2     0.900000E-01   1.00800           0
      4151 MEMB     34       PYPG     H14Y     HAL2     0.900000E-01   1.00800           0
      4152 MEMB     34       PYPG     C315     CTL2    -0.180000       12.0110           0
      4153 MEMB     34       PYPG     H15X     HAL2     0.900000E-01   1.00800           0
      4154 MEMB     34       PYPG     H15Y     HAL2     0.900000E-01   1.00800           0
      4155 MEMB     34       PYPG     C316     CTL3    -0.270000       12.0110           0
      4156 MEMB     34       PYPG     H16X     HAL3     0.900000E-01   1.00800           0
      4157 MEMB     34       PYPG     H16Y     HAL3     0.900000E-01   1.00800           0
      4158 MEMB     34       PYPG     H16Z     HAL3     0.900000E-01   1.00800           0
      4159 MEMB     35       PMPE     N        NH3L    -0.300000       14.0070           0
      4160 MEMB     35       PMPE     HN1      HCL      0.330000       1.00800           0
      4161 MEMB     35       PMPE     HN2      HCL      0.330000       1.00800           0
      4162 MEMB     35       PMPE     HN3      HCL      0.330000       1.00800           0
      4163 MEMB     35       PMPE     C12      CTL2     0.130000       12.0110           0
      4164 MEMB     35       PMPE     H12A     HAL2     0.900000E-01   1.00800           0
      4165 MEMB     35       PMPE     H12B     HAL2     0.900000E-01   1.00800           0
      4166 MEMB     35       PMPE     C11      CTL2    -0.800000E-01   12.0110           0
      4167 MEMB     35       PMPE     H11A     HAL2     0.900000E-01   1.00800           0
      4168 MEMB     35       PMPE     H11B     HAL2     0.900000E-01   1.00800           0
      4169 MEMB     35       PMPE     P        PL        1.50000       30.9740           0
      4170 MEMB     35       PMPE     O13      O2L     -0.780000       15.9994           0
      4171 MEMB     35       PMPE     O14      O2L     -0.780000       15.9994           0
      4172 MEMB     35       PMPE     O11      OSLP    -0.570000       15.9994           0
      4173 MEMB     35       PMPE     O12      OSLP    -0.570000       15.9994           0
      4174 MEMB     35       PMPE     C1       CTL2    -0.800000E-01   12.0110           0
      4175 MEMB     35       PMPE     HA       HAL2     0.900000E-01   1.00800           0
      4176 MEMB     35       PMPE     HB       HAL2     0.900000E-01   1.00800           0
      4177 MEMB     35       PMPE     C2       CTL1     0.170000       12.0110           0
      4178 MEMB     35       PMPE     HS       HAL1     0.900000E-01   1.00800           0
      4179 MEMB     35       PMPE     O21      OSL     -0.490000       15.9994           0
      4180 MEMB     35       PMPE     C21      CL       0.900000       12.0110           0
      4181 MEMB     35       PMPE     O22      OBL     -0.630000       15.9994           0
      4182 MEMB     35       PMPE     C22      CTL2    -0.220000       12.0110           0
      4183 MEMB     35       PMPE     H2R      HAL2     0.900000E-01   1.00800           0
      4184 MEMB     35       PMPE     H2S      HAL2     0.900000E-01   1.00800           0
      4185 MEMB     35       PMPE     C3       CTL2     0.800000E-01   12.0110           0
      4186 MEMB     35       PMPE     HX       HAL2     0.900000E-01   1.00800           0
      4187 MEMB     35       PMPE     HY       HAL2     0.900000E-01   1.00800           0
      4188 MEMB     35       PMPE     O31      OSL     -0.490000       15.9994           0
      4189 MEMB     35       PMPE     C31      CL       0.900000       12.0110           0
      4190 MEMB     35       PMPE     O32      OBL     -0.630000       15.9994           0
      4191 MEMB     35       PMPE     C32      CTL2    -0.220000       12.0110           0
      4192 MEMB     35       PMPE     H2X      HAL2     0.900000E-01   1.00800           0
      4193 MEMB     35       PMPE     H2Y      HAL2     0.900000E-01   1.00800           0
      4194 MEMB     35       PMPE     C23      CTL2    -0.180000       12.0110           0
      4195 MEMB     35       PMPE     H3R      HAL2     0.900000E-01   1.00800           0
      4196 MEMB     35       PMPE     H3S      HAL2     0.900000E-01   1.00800           0
      4197 MEMB     35       PMPE     C24      CTL2    -0.180000       12.0110           0
      4198 MEMB     35       PMPE     H4R      HAL2     0.900000E-01   1.00800           0
      4199 MEMB     35       PMPE     H4S      HAL2     0.900000E-01   1.00800           0
      4200 MEMB     35       PMPE     C25      CTL2    -0.180000       12.0110           0
      4201 MEMB     35       PMPE     H5R      HAL2     0.900000E-01   1.00800           0
      4202 MEMB     35       PMPE     H5S      HAL2     0.900000E-01   1.00800           0
      4203 MEMB     35       PMPE     C26      CTL2    -0.180000       12.0110           0
      4204 MEMB     35       PMPE     H6R      HAL2     0.900000E-01   1.00800           0
      4205 MEMB     35       PMPE     H6S      HAL2     0.900000E-01   1.00800           0
      4206 MEMB     35       PMPE     C27      CTL2    -0.180000       12.0110           0
      4207 MEMB     35       PMPE     H7R      HAL2     0.900000E-01   1.00800           0
      4208 MEMB     35       PMPE     H7S      HAL2     0.900000E-01   1.00800           0
      4209 MEMB     35       PMPE     C28      CTL2    -0.180000       12.0110           0
      4210 MEMB     35       PMPE     H8R      HAL2     0.900000E-01   1.00800           0
      4211 MEMB     35       PMPE     H8S      HAL2     0.900000E-01   1.00800           0
      4212 MEMB     35       PMPE     C29      CG3RC1  -0.900000E-01   12.0110           0
      4213 MEMB     35       PMPE     H9R      HGA1     0.900000E-01   1.00800           0
      4214 MEMB     35       PMPE     C217     CG3C31  -0.180000       12.0110           0
      4215 MEMB     35       PMPE     H17R     HGA2     0.900000E-01   1.00800           0
      4216 MEMB     35       PMPE     H17S     HGA2     0.900000E-01   1.00800           0
      4217 MEMB     35       PMPE     C210     CG3RC1  -0.900000E-01   12.0110           0
      4218 MEMB     35       PMPE     H10R     HGA1     0.900000E-01   1.00800           0
      4219 MEMB     35       PMPE     C211     CTL2    -0.180000       12.0110           0
      4220 MEMB     35       PMPE     H11R     HAL2     0.900000E-01   1.00800           0
      4221 MEMB     35       PMPE     H11S     HAL2     0.900000E-01   1.00800           0
      4222 MEMB     35       PMPE     C212     CTL2    -0.180000       12.0110           0
      4223 MEMB     35       PMPE     H12R     HAL2     0.900000E-01   1.00800           0
      4224 MEMB     35       PMPE     H12S     HAL2     0.900000E-01   1.00800           0
      4225 MEMB     35       PMPE     C213     CTL2    -0.180000       12.0110           0
      4226 MEMB     35       PMPE     H13R     HAL2     0.900000E-01   1.00800           0
      4227 MEMB     35       PMPE     H13S     HAL2     0.900000E-01   1.00800           0
      4228 MEMB     35       PMPE     C214     CTL2    -0.180000       12.0110           0
      4229 MEMB     35       PMPE     H14R     HAL2     0.900000E-01   1.00800           0
      4230 MEMB     35       PMPE     H14S     HAL2     0.900000E-01   1.00800           0
      4231 MEMB     35       PMPE     C215     CTL2    -0.180000       12.0110           0
      4232 MEMB     35       PMPE     H15R     HAL2     0.900000E-01   1.00800           0
      4233 MEMB     35       PMPE     H15S     HAL2     0.900000E-01   1.00800           0
      4234 MEMB     35       PMPE     C216     CTL3    -0.270000       12.0110           0
      4235 MEMB     35       PMPE     H16R     HAL3     0.900000E-01   1.00800           0
      4236 MEMB     35       PMPE     H16S     HAL3     0.900000E-01   1.00800           0
      4237 MEMB     35       PMPE     H16T     HAL3     0.900000E-01   1.00800           0
      4238 MEMB     35       PMPE     C33      CTL2    -0.180000       12.0110           0
      4239 MEMB     35       PMPE     H3X      HAL2     0.900000E-01   1.00800           0
      4240 MEMB     35       PMPE     H3Y      HAL2     0.900000E-01   1.00800           0
      4241 MEMB     35       PMPE     C34      CTL2    -0.180000       12.0110           0
      4242 MEMB     35       PMPE     H4X      HAL2     0.900000E-01   1.00800           0
      4243 MEMB     35       PMPE     H4Y      HAL2     0.900000E-01   1.00800           0
      4244 MEMB     35       PMPE     C35      CTL2    -0.180000       12.0110           0
      4245 MEMB     35       PMPE     H5X      HAL2     0.900000E-01   1.00800           0
      4246 MEMB     35       PMPE     H5Y      HAL2     0.900000E-01   1.00800           0
      4247 MEMB     35       PMPE     C36      CTL2    -0.180000       12.0110           0
      4248 MEMB     35       PMPE     H6X      HAL2     0.900000E-01   1.00800           0
      4249 MEMB     35       PMPE     H6Y      HAL2     0.900000E-01   1.00800           0
      4250 MEMB     35       PMPE     C37      CTL2    -0.180000       12.0110           0
      4251 MEMB     35       PMPE     H7X      HAL2     0.900000E-01   1.00800           0
      4252 MEMB     35       PMPE     H7Y      HAL2     0.900000E-01   1.00800           0
      4253 MEMB     35       PMPE     C38      CTL2    -0.180000       12.0110           0
      4254 MEMB     35       PMPE     H8X      HAL2     0.900000E-01   1.00800           0
      4255 MEMB     35       PMPE     H8Y      HAL2     0.900000E-01   1.00800           0
      4256 MEMB     35       PMPE     C39      CTL2    -0.180000       12.0110           0
      4257 MEMB     35       PMPE     H9X      HAL2     0.900000E-01   1.00800           0
      4258 MEMB     35       PMPE     H9Y      HAL2     0.900000E-01   1.00800           0
      4259 MEMB     35       PMPE     C310     CTL2    -0.180000       12.0110           0
      4260 MEMB     35       PMPE     H10X     HAL2     0.900000E-01   1.00800           0
      4261 MEMB     35       PMPE     H10Y     HAL2     0.900000E-01   1.00800           0
      4262 MEMB     35       PMPE     C311     CTL2    -0.180000       12.0110           0
      4263 MEMB     35       PMPE     H11X     HAL2     0.900000E-01   1.00800           0
      4264 MEMB     35       PMPE     H11Y     HAL2     0.900000E-01   1.00800           0
      4265 MEMB     35       PMPE     C312     CTL2    -0.180000       12.0110           0
      4266 MEMB     35       PMPE     H12X     HAL2     0.900000E-01   1.00800           0
      4267 MEMB     35       PMPE     H12Y     HAL2     0.900000E-01   1.00800           0
      4268 MEMB     35       PMPE     C313     CTL2    -0.180000       12.0110           0
      4269 MEMB     35       PMPE     H13X     HAL2     0.900000E-01   1.00800           0
      4270 MEMB     35       PMPE     H13Y     HAL2     0.900000E-01   1.00800           0
      4271 MEMB     35       PMPE     C314     CTL2    -0.180000       12.0110           0
      4272 MEMB     35       PMPE     H14X     HAL2     0.900000E-01   1.00800           0
      4273 MEMB     35       PMPE     H14Y     HAL2     0.900000E-01   1.00800           0
      4274 MEMB     35       PMPE     C315     CTL2    -0.180000       12.0110           0
      4275 MEMB     35       PMPE     H15X     HAL2     0.900000E-01   1.00800           0
      4276 MEMB     35       PMPE     H15Y     HAL2     0.900000E-01   1.00800           0
      4277 MEMB     35       PMPE     C316     CTL3    -0.270000       12.0110           0
      4278 MEMB     35       PMPE     H16X     HAL3     0.900000E-01   1.00800           0
      4279 MEMB     35       PMPE     H16Y     HAL3     0.900000E-01   1.00800           0
      4280 MEMB     35       PMPE     H16Z     HAL3     0.900000E-01   1.00800           0
      4281 MEMB     36       OYPE     N        NH3L    -0.300000       14.0070           0
      4282 MEMB     36       OYPE     HN1      HCL      0.330000       1.00800           0
      4283 MEMB     36       OYPE     HN2      HCL      0.330000       1.00800           0
      4284 MEMB     36       OYPE     HN3      HCL      0.330000       1.00800           0
      4285 MEMB     36       OYPE     C12      CTL2     0.130000       12.0110           0
      4286 MEMB     36       OYPE     H12A     HAL2     0.900000E-01   1.00800           0
      4287 MEMB     36       OYPE     H12B     HAL2     0.900000E-01   1.00800           0
      4288 MEMB     36       OYPE     C11      CTL2    -0.800000E-01   12.0110           0
      4289 MEMB     36       OYPE     H11A     HAL2     0.900000E-01   1.00800           0
      4290 MEMB     36       OYPE     H11B     HAL2     0.900000E-01   1.00800           0
      4291 MEMB     36       OYPE     P        PL        1.50000       30.9740           0
      4292 MEMB     36       OYPE     O13      O2L     -0.780000       15.9994           0
      4293 MEMB     36       OYPE     O14      O2L     -0.780000       15.9994           0
      4294 MEMB     36       OYPE     O11      OSLP    -0.570000       15.9994           0
      4295 MEMB     36       OYPE     O12      OSLP    -0.570000       15.9994           0
      4296 MEMB     36       OYPE     C1       CTL2    -0.800000E-01   12.0110           0
      4297 MEMB     36       OYPE     HA       HAL2     0.900000E-01   1.00800           0
      4298 MEMB     36       OYPE     HB       HAL2     0.900000E-01   1.00800           0
      4299 MEMB     36       OYPE     C2       CTL1     0.170000       12.0110           0
      4300 MEMB     36       OYPE     HS       HAL1     0.900000E-01   1.00800           0
      4301 MEMB     36       OYPE     O21      OSL     -0.490000       15.9994           0
      4302 MEMB     36       OYPE     C21      CL       0.900000       12.0110           0
      4303 MEMB     36       OYPE     O22      OBL     -0.630000       15.9994           0
      4304 MEMB     36       OYPE     C22      CTL2    -0.220000       12.0110           0
      4305 MEMB     36       OYPE     H2R      HAL2     0.900000E-01   1.00800           0
      4306 MEMB     36       OYPE     H2S      HAL2     0.900000E-01   1.00800           0
      4307 MEMB     36       OYPE     C3       CTL2     0.800000E-01   12.0110           0
      4308 MEMB     36       OYPE     HX       HAL2     0.900000E-01   1.00800           0
      4309 MEMB     36       OYPE     HY       HAL2     0.900000E-01   1.00800           0
      4310 MEMB     36       OYPE     O31      OSL     -0.490000       15.9994           0
      4311 MEMB     36       OYPE     C31      CL       0.900000       12.0110           0
      4312 MEMB     36       OYPE     O32      OBL     -0.630000       15.9994           0
      4313 MEMB     36       OYPE     C32      CTL2    -0.220000       12.0110           0
      4314 MEMB     36       OYPE     H2X      HAL2     0.900000E-01   1.00800           0
      4315 MEMB     36       OYPE     H2Y      HAL2     0.900000E-01   1.00800           0
      4316 MEMB     36       OYPE     C23      CTL2    -0.180000       12.0110           0
      4317 MEMB     36       OYPE     H3R      HAL2     0.900000E-01   1.00800           0
      4318 MEMB     36       OYPE     H3S      HAL2     0.900000E-01   1.00800           0
      4319 MEMB     36       OYPE     C24      CTL2    -0.180000       12.0110           0
      4320 MEMB     36       OYPE     H4R      HAL2     0.900000E-01   1.00800           0
      4321 MEMB     36       OYPE     H4S      HAL2     0.900000E-01   1.00800           0
      4322 MEMB     36       OYPE     C25      CTL2    -0.180000       12.0110           0
      4323 MEMB     36       OYPE     H5R      HAL2     0.900000E-01   1.00800           0
      4324 MEMB     36       OYPE     H5S      HAL2     0.900000E-01   1.00800           0
      4325 MEMB     36       OYPE     C26      CTL2    -0.180000       12.0110           0
      4326 MEMB     36       OYPE     H6R      HAL2     0.900000E-01   1.00800           0
      4327 MEMB     36       OYPE     H6S      HAL2     0.900000E-01   1.00800           0
      4328 MEMB     36       OYPE     C27      CTL2    -0.180000       12.0110           0
      4329 MEMB     36       OYPE     H7R      HAL2     0.900000E-01   1.00800           0
      4330 MEMB     36       OYPE     H7S      HAL2     0.900000E-01   1.00800           0
      4331 MEMB     36       OYPE     C28      CTL2    -0.180000       12.0110           0
      4332 MEMB     36       OYPE     H8R      HAL2     0.900000E-01   1.00800           0
      4333 MEMB     36       OYPE     H8S      HAL2     0.900000E-01   1.00800           0
      4334 MEMB     36       OYPE     C29      CEL1    -0.150000       12.0110           0
      4335 MEMB     36       OYPE     H9R      HEL1     0.150000       1.00800           0
      4336 MEMB     36       OYPE     C210     CEL1    -0.150000       12.0110           0
      4337 MEMB     36       OYPE     H10R     HEL1     0.150000       1.00800           0
      4338 MEMB     36       OYPE     C211     CTL2    -0.180000       12.0110           0
      4339 MEMB     36       OYPE     H11R     HAL2     0.900000E-01   1.00800           0
      4340 MEMB     36       OYPE     H11S     HAL2     0.900000E-01   1.00800           0
      4341 MEMB     36       OYPE     C212     CTL2    -0.180000       12.0110           0
      4342 MEMB     36       OYPE     H12R     HAL2     0.900000E-01   1.00800           0
      4343 MEMB     36       OYPE     H12S     HAL2     0.900000E-01   1.00800           0
      4344 MEMB     36       OYPE     C213     CTL2    -0.180000       12.0110           0
      4345 MEMB     36       OYPE     H13R     HAL2     0.900000E-01   1.00800           0
      4346 MEMB     36       OYPE     H13S     HAL2     0.900000E-01   1.00800           0
      4347 MEMB     36       OYPE     C214     CTL2    -0.180000       12.0110           0
      4348 MEMB     36       OYPE     H14R     HAL2     0.900000E-01   1.00800           0
      4349 MEMB     36       OYPE     H14S     HAL2     0.900000E-01   1.00800           0
      4350 MEMB     36       OYPE     C215     CTL2    -0.180000       12.0110           0
      4351 MEMB     36       OYPE     H15R     HAL2     0.900000E-01   1.00800           0
      4352 MEMB     36       OYPE     H15S     HAL2     0.900000E-01   1.00800           0
      4353 MEMB     36       OYPE     C216     CTL3    -0.270000       12.0110           0
      4354 MEMB     36       OYPE     H16R     HAL3     0.900000E-01   1.00800           0
      4355 MEMB     36       OYPE     H16S     HAL3     0.900000E-01   1.00800           0
      4356 MEMB     36       OYPE     H16T     HAL3     0.900000E-01   1.00800           0
      4357 MEMB     36       OYPE     C33      CTL2    -0.180000       12.0110           0
      4358 MEMB     36       OYPE     H3X      HAL2     0.900000E-01   1.00800           0
      4359 MEMB     36       OYPE     H3Y      HAL2     0.900000E-01   1.00800           0
      4360 MEMB     36       OYPE     C34      CTL2    -0.180000       12.0110           0
      4361 MEMB     36       OYPE     H4X      HAL2     0.900000E-01   1.00800           0
      4362 MEMB     36       OYPE     H4Y      HAL2     0.900000E-01   1.00800           0
      4363 MEMB     36       OYPE     C35      CTL2    -0.180000       12.0110           0
      4364 MEMB     36       OYPE     H5X      HAL2     0.900000E-01   1.00800           0
      4365 MEMB     36       OYPE     H5Y      HAL2     0.900000E-01   1.00800           0
      4366 MEMB     36       OYPE     C36      CTL2    -0.180000       12.0110           0
      4367 MEMB     36       OYPE     H6X      HAL2     0.900000E-01   1.00800           0
      4368 MEMB     36       OYPE     H6Y      HAL2     0.900000E-01   1.00800           0
      4369 MEMB     36       OYPE     C37      CTL2    -0.180000       12.0110           0
      4370 MEMB     36       OYPE     H7X      HAL2     0.900000E-01   1.00800           0
      4371 MEMB     36       OYPE     H7Y      HAL2     0.900000E-01   1.00800           0
      4372 MEMB     36       OYPE     C38      CTL2    -0.180000       12.0110           0
      4373 MEMB     36       OYPE     H8X      HAL2     0.900000E-01   1.00800           0
      4374 MEMB     36       OYPE     H8Y      HAL2     0.900000E-01   1.00800           0
      4375 MEMB     36       OYPE     C39      CEL1    -0.150000       12.0110           0
      4376 MEMB     36       OYPE     H9X      HEL1     0.150000       1.00800           0
      4377 MEMB     36       OYPE     C310     CEL1    -0.150000       12.0110           0
      4378 MEMB     36       OYPE     H10X     HEL1     0.150000       1.00800           0
      4379 MEMB     36       OYPE     C311     CTL2    -0.180000       12.0110           0
      4380 MEMB     36       OYPE     H11X     HAL2     0.900000E-01   1.00800           0
      4381 MEMB     36       OYPE     H11Y     HAL2     0.900000E-01   1.00800           0
      4382 MEMB     36       OYPE     C312     CTL2    -0.180000       12.0110           0
      4383 MEMB     36       OYPE     H12X     HAL2     0.900000E-01   1.00800           0
      4384 MEMB     36       OYPE     H12Y     HAL2     0.900000E-01   1.00800           0
      4385 MEMB     36       OYPE     C313     CTL2    -0.180000       12.0110           0
      4386 MEMB     36       OYPE     H13X     HAL2     0.900000E-01   1.00800           0
      4387 MEMB     36       OYPE     H13Y     HAL2     0.900000E-01   1.00800           0
      4388 MEMB     36       OYPE     C314     CTL2    -0.180000       12.0110           0
      4389 MEMB     36       OYPE     H14X     HAL2     0.900000E-01   1.00800           0
      4390 MEMB     36       OYPE     H14Y     HAL2     0.900000E-01   1.00800           0
      4391 MEMB     36       OYPE     C315     CTL2    -0.180000       12.0110           0
      4392 MEMB     36       OYPE     H15X     HAL2     0.900000E-01   1.00800           0
      4393 MEMB     36       OYPE     H15Y     HAL2     0.900000E-01   1.00800           0
      4394 MEMB     36       OYPE     C316     CTL2    -0.180000       12.0110           0
      4395 MEMB     36       OYPE     H16X     HAL2     0.900000E-01   1.00800           0
      4396 MEMB     36       OYPE     H16Y     HAL2     0.900000E-01   1.00800           0
      4397 MEMB     36       OYPE     C317     CTL2    -0.180000       12.0110           0
      4398 MEMB     36       OYPE     H17X     HAL2     0.900000E-01   1.00800           0
      4399 MEMB     36       OYPE     H17Y     HAL2     0.900000E-01   1.00800           0
      4400 MEMB     36       OYPE     C318     CTL3    -0.270000       12.0110           0
      4401 MEMB     36       OYPE     H18X     HAL3     0.900000E-01   1.00800           0
      4402 MEMB     36       OYPE     H18Y     HAL3     0.900000E-01   1.00800           0
      4403 MEMB     36       OYPE     H18Z     HAL3     0.900000E-01   1.00800           0
      4404 MEMB     37       PMPE     N        NH3L    -0.300000       14.0070           0
      4405 MEMB     37       PMPE     HN1      HCL      0.330000       1.00800           0
      4406 MEMB     37       PMPE     HN2      HCL      0.330000       1.00800           0
      4407 MEMB     37       PMPE     HN3      HCL      0.330000       1.00800           0
      4408 MEMB     37       PMPE     C12      CTL2     0.130000       12.0110           0
      4409 MEMB     37       PMPE     H12A     HAL2     0.900000E-01   1.00800           0
      4410 MEMB     37       PMPE     H12B     HAL2     0.900000E-01   1.00800           0
      4411 MEMB     37       PMPE     C11      CTL2    -0.800000E-01   12.0110           0
      4412 MEMB     37       PMPE     H11A     HAL2     0.900000E-01   1.00800           0
      4413 MEMB     37       PMPE     H11B     HAL2     0.900000E-01   1.00800           0
      4414 MEMB     37       PMPE     P        PL        1.50000       30.9740           0
      4415 MEMB     37       PMPE     O13      O2L     -0.780000       15.9994           0
      4416 MEMB     37       PMPE     O14      O2L     -0.780000       15.9994           0
      4417 MEMB     37       PMPE     O11      OSLP    -0.570000       15.9994           0
      4418 MEMB     37       PMPE     O12      OSLP    -0.570000       15.9994           0
      4419 MEMB     37       PMPE     C1       CTL2    -0.800000E-01   12.0110           0
      4420 MEMB     37       PMPE     HA       HAL2     0.900000E-01   1.00800           0
      4421 MEMB     37       PMPE     HB       HAL2     0.900000E-01   1.00800           0
      4422 MEMB     37       PMPE     C2       CTL1     0.170000       12.0110           0
      4423 MEMB     37       PMPE     HS       HAL1     0.900000E-01   1.00800           0
      4424 MEMB     37       PMPE     O21      OSL     -0.490000       15.9994           0
      4425 MEMB     37       PMPE     C21      CL       0.900000       12.0110           0
      4426 MEMB     37       PMPE     O22      OBL     -0.630000       15.9994           0
      4427 MEMB     37       PMPE     C22      CTL2    -0.220000       12.0110           0
      4428 MEMB     37       PMPE     H2R      HAL2     0.900000E-01   1.00800           0
      4429 MEMB     37       PMPE     H2S      HAL2     0.900000E-01   1.00800           0
      4430 MEMB     37       PMPE     C3       CTL2     0.800000E-01   12.0110           0
      4431 MEMB     37       PMPE     HX       HAL2     0.900000E-01   1.00800           0
      4432 MEMB     37       PMPE     HY       HAL2     0.900000E-01   1.00800           0
      4433 MEMB     37       PMPE     O31      OSL     -0.490000       15.9994           0
      4434 MEMB     37       PMPE     C31      CL       0.900000       12.0110           0
      4435 MEMB     37       PMPE     O32      OBL     -0.630000       15.9994           0
      4436 MEMB     37       PMPE     C32      CTL2    -0.220000       12.0110           0
      4437 MEMB     37       PMPE     H2X      HAL2     0.900000E-01   1.00800           0
      4438 MEMB     37       PMPE     H2Y      HAL2     0.900000E-01   1.00800           0
      4439 MEMB     37       PMPE     C23      CTL2    -0.180000       12.0110           0
      4440 MEMB     37       PMPE     H3R      HAL2     0.900000E-01   1.00800           0
      4441 MEMB     37       PMPE     H3S      HAL2     0.900000E-01   1.00800           0
      4442 MEMB     37       PMPE     C24      CTL2    -0.180000       12.0110           0
      4443 MEMB     37       PMPE     H4R      HAL2     0.900000E-01   1.00800           0
      4444 MEMB     37       PMPE     H4S      HAL2     0.900000E-01   1.00800           0
      4445 MEMB     37       PMPE     C25      CTL2    -0.180000       12.0110           0
      4446 MEMB     37       PMPE     H5R      HAL2     0.900000E-01   1.00800           0
      4447 MEMB     37       PMPE     H5S      HAL2     0.900000E-01   1.00800           0
      4448 MEMB     37       PMPE     C26      CTL2    -0.180000       12.0110           0
      4449 MEMB     37       PMPE     H6R      HAL2     0.900000E-01   1.00800           0
      4450 MEMB     37       PMPE     H6S      HAL2     0.900000E-01   1.00800           0
      4451 MEMB     37       PMPE     C27      CTL2    -0.180000       12.0110           0
      4452 MEMB     37       PMPE     H7R      HAL2     0.900000E-01   1.00800           0
      4453 MEMB     37       PMPE     H7S      HAL2     0.900000E-01   1.00800           0
      4454 MEMB     37       PMPE     C28      CTL2    -0.180000       12.0110           0
      4455 MEMB     37       PMPE     H8R      HAL2     0.900000E-01   1.00800           0
      4456 MEMB     37       PMPE     H8S      HAL2     0.900000E-01   1.00800           0
      4457 MEMB     37       PMPE     C29      CG3RC1  -0.900000E-01   12.0110           0
      4458 MEMB     37       PMPE     H9R      HGA1     0.900000E-01   1.00800           0
      4459 MEMB     37       PMPE     C217     CG3C31  -0.180000       12.0110           0
      4460 MEMB     37       PMPE     H17R     HGA2     0.900000E-01   1.00800           0
      4461 MEMB     37       PMPE     H17S     HGA2     0.900000E-01   1.00800           0
      4462 MEMB     37       PMPE     C210     CG3RC1  -0.900000E-01   12.0110           0
      4463 MEMB     37       PMPE     H10R     HGA1     0.900000E-01   1.00800           0
      4464 MEMB     37       PMPE     C211     CTL2    -0.180000       12.0110           0
      4465 MEMB     37       PMPE     H11R     HAL2     0.900000E-01   1.00800           0
      4466 MEMB     37       PMPE     H11S     HAL2     0.900000E-01   1.00800           0
      4467 MEMB     37       PMPE     C212     CTL2    -0.180000       12.0110           0
      4468 MEMB     37       PMPE     H12R     HAL2     0.900000E-01   1.00800           0
      4469 MEMB     37       PMPE     H12S     HAL2     0.900000E-01   1.00800           0
      4470 MEMB     37       PMPE     C213     CTL2    -0.180000       12.0110           0
      4471 MEMB     37       PMPE     H13R     HAL2     0.900000E-01   1.00800           0
      4472 MEMB     37       PMPE     H13S     HAL2     0.900000E-01   1.00800           0
      4473 MEMB     37       PMPE     C214     CTL2    -0.180000       12.0110           0
      4474 MEMB     37       PMPE     H14R     HAL2     0.900000E-01   1.00800           0
      4475 MEMB     37       PMPE     H14S     HAL2     0.900000E-01   1.00800           0
      4476 MEMB     37       PMPE     C215     CTL2    -0.180000       12.0110           0
      4477 MEMB     37       PMPE     H15R     HAL2     0.900000E-01   1.00800           0
      4478 MEMB     37       PMPE     H15S     HAL2     0.900000E-01   1.00800           0
      4479 MEMB     37       PMPE     C216     CTL3    -0.270000       12.0110           0
      4480 MEMB     37       PMPE     H16R     HAL3     0.900000E-01   1.00800           0
      4481 MEMB     37       PMPE     H16S     HAL3     0.900000E-01   1.00800           0
      4482 MEMB     37       PMPE     H16T     HAL3     0.900000E-01   1.00800           0
      4483 MEMB     37       PMPE     C33      CTL2    -0.180000       12.0110           0
      4484 MEMB     37       PMPE     H3X      HAL2     0.900000E-01   1.00800           0
      4485 MEMB     37       PMPE     H3Y      HAL2     0.900000E-01   1.00800           0
      4486 MEMB     37       PMPE     C34      CTL2    -0.180000       12.0110           0
      4487 MEMB     37       PMPE     H4X      HAL2     0.900000E-01   1.00800           0
      4488 MEMB     37       PMPE     H4Y      HAL2     0.900000E-01   1.00800           0
      4489 MEMB     37       PMPE     C35      CTL2    -0.180000       12.0110           0
      4490 MEMB     37       PMPE     H5X      HAL2     0.900000E-01   1.00800           0
      4491 MEMB     37       PMPE     H5Y      HAL2     0.900000E-01   1.00800           0
      4492 MEMB     37       PMPE     C36      CTL2    -0.180000       12.0110           0
      4493 MEMB     37       PMPE     H6X      HAL2     0.900000E-01   1.00800           0
      4494 MEMB     37       PMPE     H6Y      HAL2     0.900000E-01   1.00800           0
      4495 MEMB     37       PMPE     C37      CTL2    -0.180000       12.0110           0
      4496 MEMB     37       PMPE     H7X      HAL2     0.900000E-01   1.00800           0
      4497 MEMB     37       PMPE     H7Y      HAL2     0.900000E-01   1.00800           0
      4498 MEMB     37       PMPE     C38      CTL2    -0.180000       12.0110           0
      4499 MEMB     37       PMPE     H8X      HAL2     0.900000E-01   1.00800           0
      4500 MEMB     37       PMPE     H8Y      HAL2     0.900000E-01   1.00800           0
      4501 MEMB     37       PMPE     C39      CTL2    -0.180000       12.0110           0
      4502 MEMB     37       PMPE     H9X      HAL2     0.900000E-01   1.00800           0
      4503 MEMB     37       PMPE     H9Y      HAL2     0.900000E-01   1.00800           0
      4504 MEMB     37       PMPE     C310     CTL2    -0.180000       12.0110           0
      4505 MEMB     37       PMPE     H10X     HAL2     0.900000E-01   1.00800           0
      4506 MEMB     37       PMPE     H10Y     HAL2     0.900000E-01   1.00800           0
      4507 MEMB     37       PMPE     C311     CTL2    -0.180000       12.0110           0
      4508 MEMB     37       PMPE     H11X     HAL2     0.900000E-01   1.00800           0
      4509 MEMB     37       PMPE     H11Y     HAL2     0.900000E-01   1.00800           0
      4510 MEMB     37       PMPE     C312     CTL2    -0.180000       12.0110           0
      4511 MEMB     37       PMPE     H12X     HAL2     0.900000E-01   1.00800           0
      4512 MEMB     37       PMPE     H12Y     HAL2     0.900000E-01   1.00800           0
      4513 MEMB     37       PMPE     C313     CTL2    -0.180000       12.0110           0
      4514 MEMB     37       PMPE     H13X     HAL2     0.900000E-01   1.00800           0
      4515 MEMB     37       PMPE     H13Y     HAL2     0.900000E-01   1.00800           0
      4516 MEMB     37       PMPE     C314     CTL2    -0.180000       12.0110           0
      4517 MEMB     37       PMPE     H14X     HAL2     0.900000E-01   1.00800           0
      4518 MEMB     37       PMPE     H14Y     HAL2     0.900000E-01   1.00800           0
      4519 MEMB     37       PMPE     C315     CTL2    -0.180000       12.0110           0
      4520 MEMB     37       PMPE     H15X     HAL2     0.900000E-01   1.00800           0
      4521 MEMB     37       PMPE     H15Y     HAL2     0.900000E-01   1.00800           0
      4522 MEMB     37       PMPE     C316     CTL3    -0.270000       12.0110           0
      4523 MEMB     37       PMPE     H16X     HAL3     0.900000E-01   1.00800           0
      4524 MEMB     37       PMPE     H16Y     HAL3     0.900000E-01   1.00800           0
      4525 MEMB     37       PMPE     H16Z     HAL3     0.900000E-01   1.00800           0
      4526 MEMB     38       OYPE     N        NH3L    -0.300000       14.0070           0
      4527 MEMB     38       OYPE     HN1      HCL      0.330000       1.00800           0
      4528 MEMB     38       OYPE     HN2      HCL      0.330000       1.00800           0
      4529 MEMB     38       OYPE     HN3      HCL      0.330000       1.00800           0
      4530 MEMB     38       OYPE     C12      CTL2     0.130000       12.0110           0
      4531 MEMB     38       OYPE     H12A     HAL2     0.900000E-01   1.00800           0
      4532 MEMB     38       OYPE     H12B     HAL2     0.900000E-01   1.00800           0
      4533 MEMB     38       OYPE     C11      CTL2    -0.800000E-01   12.0110           0
      4534 MEMB     38       OYPE     H11A     HAL2     0.900000E-01   1.00800           0
      4535 MEMB     38       OYPE     H11B     HAL2     0.900000E-01   1.00800           0
      4536 MEMB     38       OYPE     P        PL        1.50000       30.9740           0
      4537 MEMB     38       OYPE     O13      O2L     -0.780000       15.9994           0
      4538 MEMB     38       OYPE     O14      O2L     -0.780000       15.9994           0
      4539 MEMB     38       OYPE     O11      OSLP    -0.570000       15.9994           0
      4540 MEMB     38       OYPE     O12      OSLP    -0.570000       15.9994           0
      4541 MEMB     38       OYPE     C1       CTL2    -0.800000E-01   12.0110           0
      4542 MEMB     38       OYPE     HA       HAL2     0.900000E-01   1.00800           0
      4543 MEMB     38       OYPE     HB       HAL2     0.900000E-01   1.00800           0
      4544 MEMB     38       OYPE     C2       CTL1     0.170000       12.0110           0
      4545 MEMB     38       OYPE     HS       HAL1     0.900000E-01   1.00800           0
      4546 MEMB     38       OYPE     O21      OSL     -0.490000       15.9994           0
      4547 MEMB     38       OYPE     C21      CL       0.900000       12.0110           0
      4548 MEMB     38       OYPE     O22      OBL     -0.630000       15.9994           0
      4549 MEMB     38       OYPE     C22      CTL2    -0.220000       12.0110           0
      4550 MEMB     38       OYPE     H2R      HAL2     0.900000E-01   1.00800           0
      4551 MEMB     38       OYPE     H2S      HAL2     0.900000E-01   1.00800           0
      4552 MEMB     38       OYPE     C3       CTL2     0.800000E-01   12.0110           0
      4553 MEMB     38       OYPE     HX       HAL2     0.900000E-01   1.00800           0
      4554 MEMB     38       OYPE     HY       HAL2     0.900000E-01   1.00800           0
      4555 MEMB     38       OYPE     O31      OSL     -0.490000       15.9994           0
      4556 MEMB     38       OYPE     C31      CL       0.900000       12.0110           0
      4557 MEMB     38       OYPE     O32      OBL     -0.630000       15.9994           0
      4558 MEMB     38       OYPE     C32      CTL2    -0.220000       12.0110           0
      4559 MEMB     38       OYPE     H2X      HAL2     0.900000E-01   1.00800           0
      4560 MEMB     38       OYPE     H2Y      HAL2     0.900000E-01   1.00800           0
      4561 MEMB     38       OYPE     C23      CTL2    -0.180000       12.0110           0
      4562 MEMB     38       OYPE     H3R      HAL2     0.900000E-01   1.00800           0
      4563 MEMB     38       OYPE     H3S      HAL2     0.900000E-01   1.00800           0
      4564 MEMB     38       OYPE     C24      CTL2    -0.180000       12.0110           0
      4565 MEMB     38       OYPE     H4R      HAL2     0.900000E-01   1.00800           0
      4566 MEMB     38       OYPE     H4S      HAL2     0.900000E-01   1.00800           0
      4567 MEMB     38       OYPE     C25      CTL2    -0.180000       12.0110           0
      4568 MEMB     38       OYPE     H5R      HAL2     0.900000E-01   1.00800           0
      4569 MEMB     38       OYPE     H5S      HAL2     0.900000E-01   1.00800           0
      4570 MEMB     38       OYPE     C26      CTL2    -0.180000       12.0110           0
      4571 MEMB     38       OYPE     H6R      HAL2     0.900000E-01   1.00800           0
      4572 MEMB     38       OYPE     H6S      HAL2     0.900000E-01   1.00800           0
      4573 MEMB     38       OYPE     C27      CTL2    -0.180000       12.0110           0
      4574 MEMB     38       OYPE     H7R      HAL2     0.900000E-01   1.00800           0
      4575 MEMB     38       OYPE     H7S      HAL2     0.900000E-01   1.00800           0
      4576 MEMB     38       OYPE     C28      CTL2    -0.180000       12.0110           0
      4577 MEMB     38       OYPE     H8R      HAL2     0.900000E-01   1.00800           0
      4578 MEMB     38       OYPE     H8S      HAL2     0.900000E-01   1.00800           0
      4579 MEMB     38       OYPE     C29      CEL1    -0.150000       12.0110           0
      4580 MEMB     38       OYPE     H9R      HEL1     0.150000       1.00800           0
      4581 MEMB     38       OYPE     C210     CEL1    -0.150000       12.0110           0
      4582 MEMB     38       OYPE     H10R     HEL1     0.150000       1.00800           0
      4583 MEMB     38       OYPE     C211     CTL2    -0.180000       12.0110           0
      4584 MEMB     38       OYPE     H11R     HAL2     0.900000E-01   1.00800           0
      4585 MEMB     38       OYPE     H11S     HAL2     0.900000E-01   1.00800           0
      4586 MEMB     38       OYPE     C212     CTL2    -0.180000       12.0110           0
      4587 MEMB     38       OYPE     H12R     HAL2     0.900000E-01   1.00800           0
      4588 MEMB     38       OYPE     H12S     HAL2     0.900000E-01   1.00800           0
      4589 MEMB     38       OYPE     C213     CTL2    -0.180000       12.0110           0
      4590 MEMB     38       OYPE     H13R     HAL2     0.900000E-01   1.00800           0
      4591 MEMB     38       OYPE     H13S     HAL2     0.900000E-01   1.00800           0
      4592 MEMB     38       OYPE     C214     CTL2    -0.180000       12.0110           0
      4593 MEMB     38       OYPE     H14R     HAL2     0.900000E-01   1.00800           0
      4594 MEMB     38       OYPE     H14S     HAL2     0.900000E-01   1.00800           0
      4595 MEMB     38       OYPE     C215     CTL2    -0.180000       12.0110           0
      4596 MEMB     38       OYPE     H15R     HAL2     0.900000E-01   1.00800           0
      4597 MEMB     38       OYPE     H15S     HAL2     0.900000E-01   1.00800           0
      4598 MEMB     38       OYPE     C216     CTL3    -0.270000       12.0110           0
      4599 MEMB     38       OYPE     H16R     HAL3     0.900000E-01   1.00800           0
      4600 MEMB     38       OYPE     H16S     HAL3     0.900000E-01   1.00800           0
      4601 MEMB     38       OYPE     H16T     HAL3     0.900000E-01   1.00800           0
      4602 MEMB     38       OYPE     C33      CTL2    -0.180000       12.0110           0
      4603 MEMB     38       OYPE     H3X      HAL2     0.900000E-01   1.00800           0
      4604 MEMB     38       OYPE     H3Y      HAL2     0.900000E-01   1.00800           0
      4605 MEMB     38       OYPE     C34      CTL2    -0.180000       12.0110           0
      4606 MEMB     38       OYPE     H4X      HAL2     0.900000E-01   1.00800           0
      4607 MEMB     38       OYPE     H4Y      HAL2     0.900000E-01   1.00800           0
      4608 MEMB     38       OYPE     C35      CTL2    -0.180000       12.0110           0
      4609 MEMB     38       OYPE     H5X      HAL2     0.900000E-01   1.00800           0
      4610 MEMB     38       OYPE     H5Y      HAL2     0.900000E-01   1.00800           0
      4611 MEMB     38       OYPE     C36      CTL2    -0.180000       12.0110           0
      4612 MEMB     38       OYPE     H6X      HAL2     0.900000E-01   1.00800           0
      4613 MEMB     38       OYPE     H6Y      HAL2     0.900000E-01   1.00800           0
      4614 MEMB     38       OYPE     C37      CTL2    -0.180000       12.0110           0
      4615 MEMB     38       OYPE     H7X      HAL2     0.900000E-01   1.00800           0
      4616 MEMB     38       OYPE     H7Y      HAL2     0.900000E-01   1.00800           0
      4617 MEMB     38       OYPE     C38      CTL2    -0.180000       12.0110           0
      4618 MEMB     38       OYPE     H8X      HAL2     0.900000E-01   1.00800           0
      4619 MEMB     38       OYPE     H8Y      HAL2     0.900000E-01   1.00800           0
      4620 MEMB     38       OYPE     C39      CEL1    -0.150000       12.0110           0
      4621 MEMB     38       OYPE     H9X      HEL1     0.150000       1.00800           0
      4622 MEMB     38       OYPE     C310     CEL1    -0.150000       12.0110           0
      4623 MEMB     38       OYPE     H10X     HEL1     0.150000       1.00800           0
      4624 MEMB     38       OYPE     C311     CTL2    -0.180000       12.0110           0
      4625 MEMB     38       OYPE     H11X     HAL2     0.900000E-01   1.00800           0
      4626 MEMB     38       OYPE     H11Y     HAL2     0.900000E-01   1.00800           0
      4627 MEMB     38       OYPE     C312     CTL2    -0.180000       12.0110           0
      4628 MEMB     38       OYPE     H12X     HAL2     0.900000E-01   1.00800           0
      4629 MEMB     38       OYPE     H12Y     HAL2     0.900000E-01   1.00800           0
      4630 MEMB     38       OYPE     C313     CTL2    -0.180000       12.0110           0
      4631 MEMB     38       OYPE     H13X     HAL2     0.900000E-01   1.00800           0
      4632 MEMB     38       OYPE     H13Y     HAL2     0.900000E-01   1.00800           0
      4633 MEMB     38       OYPE     C314     CTL2    -0.180000       12.0110           0
      4634 MEMB     38       OYPE     H14X     HAL2     0.900000E-01   1.00800           0
      4635 MEMB     38       OYPE     H14Y     HAL2     0.900000E-01   1.00800           0
      4636 MEMB     38       OYPE     C315     CTL2    -0.180000       12.0110           0
      4637 MEMB     38       OYPE     H15X     HAL2     0.900000E-01   1.00800           0
      4638 MEMB     38       OYPE     H15Y     HAL2     0.900000E-01   1.00800           0
      4639 MEMB     38       OYPE     C316     CTL2    -0.180000       12.0110           0
      4640 MEMB     38       OYPE     H16X     HAL2     0.900000E-01   1.00800           0
      4641 MEMB     38       OYPE     H16Y     HAL2     0.900000E-01   1.00800           0
      4642 MEMB     38       OYPE     C317     CTL2    -0.180000       12.0110           0
      4643 MEMB     38       OYPE     H17X     HAL2     0.900000E-01   1.00800           0
      4644 MEMB     38       OYPE     H17Y     HAL2     0.900000E-01   1.00800           0
      4645 MEMB     38       OYPE     C318     CTL3    -0.270000       12.0110           0
      4646 MEMB     38       OYPE     H18X     HAL3     0.900000E-01   1.00800           0
      4647 MEMB     38       OYPE     H18Y     HAL3     0.900000E-01   1.00800           0
      4648 MEMB     38       OYPE     H18Z     HAL3     0.900000E-01   1.00800           0
      4649 MEMB     39       PMPE     N        NH3L    -0.300000       14.0070           0
      4650 MEMB     39       PMPE     HN1      HCL      0.330000       1.00800           0
      4651 MEMB     39       PMPE     HN2      HCL      0.330000       1.00800           0
      4652 MEMB     39       PMPE     HN3      HCL      0.330000       1.00800           0
      4653 MEMB     39       PMPE     C12      CTL2     0.130000       12.0110           0
      4654 MEMB     39       PMPE     H12A     HAL2     0.900000E-01   1.00800           0
      4655 MEMB     39       PMPE     H12B     HAL2     0.900000E-01   1.00800           0
      4656 MEMB     39       PMPE     C11      CTL2    -0.800000E-01   12.0110           0
      4657 MEMB     39       PMPE     H11A     HAL2     0.900000E-01   1.00800           0
      4658 MEMB     39       PMPE     H11B     HAL2     0.900000E-01   1.00800           0
      4659 MEMB     39       PMPE     P        PL        1.50000       30.9740           0
      4660 MEMB     39       PMPE     O13      O2L     -0.780000       15.9994           0
      4661 MEMB     39       PMPE     O14      O2L     -0.780000       15.9994           0
      4662 MEMB     39       PMPE     O11      OSLP    -0.570000       15.9994           0
      4663 MEMB     39       PMPE     O12      OSLP    -0.570000       15.9994           0
      4664 MEMB     39       PMPE     C1       CTL2    -0.800000E-01   12.0110           0
      4665 MEMB     39       PMPE     HA       HAL2     0.900000E-01   1.00800           0
      4666 MEMB     39       PMPE     HB       HAL2     0.900000E-01   1.00800           0
      4667 MEMB     39       PMPE     C2       CTL1     0.170000       12.0110           0
      4668 MEMB     39       PMPE     HS       HAL1     0.900000E-01   1.00800           0
      4669 MEMB     39       PMPE     O21      OSL     -0.490000       15.9994           0
      4670 MEMB     39       PMPE     C21      CL       0.900000       12.0110           0
      4671 MEMB     39       PMPE     O22      OBL     -0.630000       15.9994           0
      4672 MEMB     39       PMPE     C22      CTL2    -0.220000       12.0110           0
      4673 MEMB     39       PMPE     H2R      HAL2     0.900000E-01   1.00800           0
      4674 MEMB     39       PMPE     H2S      HAL2     0.900000E-01   1.00800           0
      4675 MEMB     39       PMPE     C3       CTL2     0.800000E-01   12.0110           0
      4676 MEMB     39       PMPE     HX       HAL2     0.900000E-01   1.00800           0
      4677 MEMB     39       PMPE     HY       HAL2     0.900000E-01   1.00800           0
      4678 MEMB     39       PMPE     O31      OSL     -0.490000       15.9994           0
      4679 MEMB     39       PMPE     C31      CL       0.900000       12.0110           0
      4680 MEMB     39       PMPE     O32      OBL     -0.630000       15.9994           0
      4681 MEMB     39       PMPE     C32      CTL2    -0.220000       12.0110           0
      4682 MEMB     39       PMPE     H2X      HAL2     0.900000E-01   1.00800           0
      4683 MEMB     39       PMPE     H2Y      HAL2     0.900000E-01   1.00800           0
      4684 MEMB     39       PMPE     C23      CTL2    -0.180000       12.0110           0
      4685 MEMB     39       PMPE     H3R      HAL2     0.900000E-01   1.00800           0
      4686 MEMB     39       PMPE     H3S      HAL2     0.900000E-01   1.00800           0
      4687 MEMB     39       PMPE     C24      CTL2    -0.180000       12.0110           0
      4688 MEMB     39       PMPE     H4R      HAL2     0.900000E-01   1.00800           0
      4689 MEMB     39       PMPE     H4S      HAL2     0.900000E-01   1.00800           0
      4690 MEMB     39       PMPE     C25      CTL2    -0.180000       12.0110           0
      4691 MEMB     39       PMPE     H5R      HAL2     0.900000E-01   1.00800           0
      4692 MEMB     39       PMPE     H5S      HAL2     0.900000E-01   1.00800           0
      4693 MEMB     39       PMPE     C26      CTL2    -0.180000       12.0110           0
      4694 MEMB     39       PMPE     H6R      HAL2     0.900000E-01   1.00800           0
      4695 MEMB     39       PMPE     H6S      HAL2     0.900000E-01   1.00800           0
      4696 MEMB     39       PMPE     C27      CTL2    -0.180000       12.0110           0
      4697 MEMB     39       PMPE     H7R      HAL2     0.900000E-01   1.00800           0
      4698 MEMB     39       PMPE     H7S      HAL2     0.900000E-01   1.00800           0
      4699 MEMB     39       PMPE     C28      CTL2    -0.180000       12.0110           0
      4700 MEMB     39       PMPE     H8R      HAL2     0.900000E-01   1.00800           0
      4701 MEMB     39       PMPE     H8S      HAL2     0.900000E-01   1.00800           0
      4702 MEMB     39       PMPE     C29      CG3RC1  -0.900000E-01   12.0110           0
      4703 MEMB     39       PMPE     H9R      HGA1     0.900000E-01   1.00800           0
      4704 MEMB     39       PMPE     C217     CG3C31  -0.180000       12.0110           0
      4705 MEMB     39       PMPE     H17R     HGA2     0.900000E-01   1.00800           0
      4706 MEMB     39       PMPE     H17S     HGA2     0.900000E-01   1.00800           0
      4707 MEMB     39       PMPE     C210     CG3RC1  -0.900000E-01   12.0110           0
      4708 MEMB     39       PMPE     H10R     HGA1     0.900000E-01   1.00800           0
      4709 MEMB     39       PMPE     C211     CTL2    -0.180000       12.0110           0
      4710 MEMB     39       PMPE     H11R     HAL2     0.900000E-01   1.00800           0
      4711 MEMB     39       PMPE     H11S     HAL2     0.900000E-01   1.00800           0
      4712 MEMB     39       PMPE     C212     CTL2    -0.180000       12.0110           0
      4713 MEMB     39       PMPE     H12R     HAL2     0.900000E-01   1.00800           0
      4714 MEMB     39       PMPE     H12S     HAL2     0.900000E-01   1.00800           0
      4715 MEMB     39       PMPE     C213     CTL2    -0.180000       12.0110           0
      4716 MEMB     39       PMPE     H13R     HAL2     0.900000E-01   1.00800           0
      4717 MEMB     39       PMPE     H13S     HAL2     0.900000E-01   1.00800           0
      4718 MEMB     39       PMPE     C214     CTL2    -0.180000       12.0110           0
      4719 MEMB     39       PMPE     H14R     HAL2     0.900000E-01   1.00800           0
      4720 MEMB     39       PMPE     H14S     HAL2     0.900000E-01   1.00800           0
      4721 MEMB     39       PMPE     C215     CTL2    -0.180000       12.0110           0
      4722 MEMB     39       PMPE     H15R     HAL2     0.900000E-01   1.00800           0
      4723 MEMB     39       PMPE     H15S     HAL2     0.900000E-01   1.00800           0
      4724 MEMB     39       PMPE     C216     CTL3    -0.270000       12.0110           0
      4725 MEMB     39       PMPE     H16R     HAL3     0.900000E-01   1.00800           0
      4726 MEMB     39       PMPE     H16S     HAL3     0.900000E-01   1.00800           0
      4727 MEMB     39       PMPE     H16T     HAL3     0.900000E-01   1.00800           0
      4728 MEMB     39       PMPE     C33      CTL2    -0.180000       12.0110           0
      4729 MEMB     39       PMPE     H3X      HAL2     0.900000E-01   1.00800           0
      4730 MEMB     39       PMPE     H3Y      HAL2     0.900000E-01   1.00800           0
      4731 MEMB     39       PMPE     C34      CTL2    -0.180000       12.0110           0
      4732 MEMB     39       PMPE     H4X      HAL2     0.900000E-01   1.00800           0
      4733 MEMB     39       PMPE     H4Y      HAL2     0.900000E-01   1.00800           0
      4734 MEMB     39       PMPE     C35      CTL2    -0.180000       12.0110           0
      4735 MEMB     39       PMPE     H5X      HAL2     0.900000E-01   1.00800           0
      4736 MEMB     39       PMPE     H5Y      HAL2     0.900000E-01   1.00800           0
      4737 MEMB     39       PMPE     C36      CTL2    -0.180000       12.0110           0
      4738 MEMB     39       PMPE     H6X      HAL2     0.900000E-01   1.00800           0
      4739 MEMB     39       PMPE     H6Y      HAL2     0.900000E-01   1.00800           0
      4740 MEMB     39       PMPE     C37      CTL2    -0.180000       12.0110           0
      4741 MEMB     39       PMPE     H7X      HAL2     0.900000E-01   1.00800           0
      4742 MEMB     39       PMPE     H7Y      HAL2     0.900000E-01   1.00800           0
      4743 MEMB     39       PMPE     C38      CTL2    -0.180000       12.0110           0
      4744 MEMB     39       PMPE     H8X      HAL2     0.900000E-01   1.00800           0
      4745 MEMB     39       PMPE     H8Y      HAL2     0.900000E-01   1.00800           0
      4746 MEMB     39       PMPE     C39      CTL2    -0.180000       12.0110           0
      4747 MEMB     39       PMPE     H9X      HAL2     0.900000E-01   1.00800           0
      4748 MEMB     39       PMPE     H9Y      HAL2     0.900000E-01   1.00800           0
      4749 MEMB     39       PMPE     C310     CTL2    -0.180000       12.0110           0
      4750 MEMB     39       PMPE     H10X     HAL2     0.900000E-01   1.00800           0
      4751 MEMB     39       PMPE     H10Y     HAL2     0.900000E-01   1.00800           0
      4752 MEMB     39       PMPE     C311     CTL2    -0.180000       12.0110           0
      4753 MEMB     39       PMPE     H11X     HAL2     0.900000E-01   1.00800           0
      4754 MEMB     39       PMPE     H11Y     HAL2     0.900000E-01   1.00800           0
      4755 MEMB     39       PMPE     C312     CTL2    -0.180000       12.0110           0
      4756 MEMB     39       PMPE     H12X     HAL2     0.900000E-01   1.00800           0
      4757 MEMB     39       PMPE     H12Y     HAL2     0.900000E-01   1.00800           0
      4758 MEMB     39       PMPE     C313     CTL2    -0.180000       12.0110           0
      4759 MEMB     39       PMPE     H13X     HAL2     0.900000E-01   1.00800           0
      4760 MEMB     39       PMPE     H13Y     HAL2     0.900000E-01   1.00800           0
      4761 MEMB     39       PMPE     C314     CTL2    -0.180000       12.0110           0
      4762 MEMB     39       PMPE     H14X     HAL2     0.900000E-01   1.00800           0
      4763 MEMB     39       PMPE     H14Y     HAL2     0.900000E-01   1.00800           0
      4764 MEMB     39       PMPE     C315     CTL2    -0.180000       12.0110           0
      4765 MEMB     39       PMPE     H15X     HAL2     0.900000E-01   1.00800           0
      4766 MEMB     39       PMPE     H15Y     HAL2     0.900000E-01   1.00800           0
      4767 MEMB     39       PMPE     C316     CTL3    -0.270000       12.0110           0
      4768 MEMB     39       PMPE     H16X     HAL3     0.900000E-01   1.00800           0
      4769 MEMB     39       PMPE     H16Y     HAL3     0.900000E-01   1.00800           0
      4770 MEMB     39       PMPE     H16Z     HAL3     0.900000E-01   1.00800           0
      4771 MEMB     40       PMPE     N        NH3L    -0.300000       14.0070           0
      4772 MEMB     40       PMPE     HN1      HCL      0.330000       1.00800           0
      4773 MEMB     40       PMPE     HN2      HCL      0.330000       1.00800           0
      4774 MEMB     40       PMPE     HN3      HCL      0.330000       1.00800           0
      4775 MEMB     40       PMPE     C12      CTL2     0.130000       12.0110           0
      4776 MEMB     40       PMPE     H12A     HAL2     0.900000E-01   1.00800           0
      4777 MEMB     40       PMPE     H12B     HAL2     0.900000E-01   1.00800           0
      4778 MEMB     40       PMPE     C11      CTL2    -0.800000E-01   12.0110           0
      4779 MEMB     40       PMPE     H11A     HAL2     0.900000E-01   1.00800           0
      4780 MEMB     40       PMPE     H11B     HAL2     0.900000E-01   1.00800           0
      4781 MEMB     40       PMPE     P        PL        1.50000       30.9740           0
      4782 MEMB     40       PMPE     O13      O2L     -0.780000       15.9994           0
      4783 MEMB     40       PMPE     O14      O2L     -0.780000       15.9994           0
      4784 MEMB     40       PMPE     O11      OSLP    -0.570000       15.9994           0
      4785 MEMB     40       PMPE     O12      OSLP    -0.570000       15.9994           0
      4786 MEMB     40       PMPE     C1       CTL2    -0.800000E-01   12.0110           0
      4787 MEMB     40       PMPE     HA       HAL2     0.900000E-01   1.00800           0
      4788 MEMB     40       PMPE     HB       HAL2     0.900000E-01   1.00800           0
      4789 MEMB     40       PMPE     C2       CTL1     0.170000       12.0110           0
      4790 MEMB     40       PMPE     HS       HAL1     0.900000E-01   1.00800           0
      4791 MEMB     40       PMPE     O21      OSL     -0.490000       15.9994           0
      4792 MEMB     40       PMPE     C21      CL       0.900000       12.0110           0
      4793 MEMB     40       PMPE     O22      OBL     -0.630000       15.9994           0
      4794 MEMB     40       PMPE     C22      CTL2    -0.220000       12.0110           0
      4795 MEMB     40       PMPE     H2R      HAL2     0.900000E-01   1.00800           0
      4796 MEMB     40       PMPE     H2S      HAL2     0.900000E-01   1.00800           0
      4797 MEMB     40       PMPE     C3       CTL2     0.800000E-01   12.0110           0
      4798 MEMB     40       PMPE     HX       HAL2     0.900000E-01   1.00800           0
      4799 MEMB     40       PMPE     HY       HAL2     0.900000E-01   1.00800           0
      4800 MEMB     40       PMPE     O31      OSL     -0.490000       15.9994           0
      4801 MEMB     40       PMPE     C31      CL       0.900000       12.0110           0
      4802 MEMB     40       PMPE     O32      OBL     -0.630000       15.9994           0
      4803 MEMB     40       PMPE     C32      CTL2    -0.220000       12.0110           0
      4804 MEMB     40       PMPE     H2X      HAL2     0.900000E-01   1.00800           0
      4805 MEMB     40       PMPE     H2Y      HAL2     0.900000E-01   1.00800           0
      4806 MEMB     40       PMPE     C23      CTL2    -0.180000       12.0110           0
      4807 MEMB     40       PMPE     H3R      HAL2     0.900000E-01   1.00800           0
      4808 MEMB     40       PMPE     H3S      HAL2     0.900000E-01   1.00800           0
      4809 MEMB     40       PMPE     C24      CTL2    -0.180000       12.0110           0
      4810 MEMB     40       PMPE     H4R      HAL2     0.900000E-01   1.00800           0
      4811 MEMB     40       PMPE     H4S      HAL2     0.900000E-01   1.00800           0
      4812 MEMB     40       PMPE     C25      CTL2    -0.180000       12.0110           0
      4813 MEMB     40       PMPE     H5R      HAL2     0.900000E-01   1.00800           0
      4814 MEMB     40       PMPE     H5S      HAL2     0.900000E-01   1.00800           0
      4815 MEMB     40       PMPE     C26      CTL2    -0.180000       12.0110           0
      4816 MEMB     40       PMPE     H6R      HAL2     0.900000E-01   1.00800           0
      4817 MEMB     40       PMPE     H6S      HAL2     0.900000E-01   1.00800           0
      4818 MEMB     40       PMPE     C27      CTL2    -0.180000       12.0110           0
      4819 MEMB     40       PMPE     H7R      HAL2     0.900000E-01   1.00800           0
      4820 MEMB     40       PMPE     H7S      HAL2     0.900000E-01   1.00800           0
      4821 MEMB     40       PMPE     C28      CTL2    -0.180000       12.0110           0
      4822 MEMB     40       PMPE     H8R      HAL2     0.900000E-01   1.00800           0
      4823 MEMB     40       PMPE     H8S      HAL2     0.900000E-01   1.00800           0
      4824 MEMB     40       PMPE     C29      CG3RC1  -0.900000E-01   12.0110           0
      4825 MEMB     40       PMPE     H9R      HGA1     0.900000E-01   1.00800           0
      4826 MEMB     40       PMPE     C217     CG3C31  -0.180000       12.0110           0
      4827 MEMB     40       PMPE     H17R     HGA2     0.900000E-01   1.00800           0
      4828 MEMB     40       PMPE     H17S     HGA2     0.900000E-01   1.00800           0
      4829 MEMB     40       PMPE     C210     CG3RC1  -0.900000E-01   12.0110           0
      4830 MEMB     40       PMPE     H10R     HGA1     0.900000E-01   1.00800           0
      4831 MEMB     40       PMPE     C211     CTL2    -0.180000       12.0110           0
      4832 MEMB     40       PMPE     H11R     HAL2     0.900000E-01   1.00800           0
      4833 MEMB     40       PMPE     H11S     HAL2     0.900000E-01   1.00800           0
      4834 MEMB     40       PMPE     C212     CTL2    -0.180000       12.0110           0
      4835 MEMB     40       PMPE     H12R     HAL2     0.900000E-01   1.00800           0
      4836 MEMB     40       PMPE     H12S     HAL2     0.900000E-01   1.00800           0
      4837 MEMB     40       PMPE     C213     CTL2    -0.180000       12.0110           0
      4838 MEMB     40       PMPE     H13R     HAL2     0.900000E-01   1.00800           0
      4839 MEMB     40       PMPE     H13S     HAL2     0.900000E-01   1.00800           0
      4840 MEMB     40       PMPE     C214     CTL2    -0.180000       12.0110           0
      4841 MEMB     40       PMPE     H14R     HAL2     0.900000E-01   1.00800           0
      4842 MEMB     40       PMPE     H14S     HAL2     0.900000E-01   1.00800           0
      4843 MEMB     40       PMPE     C215     CTL2    -0.180000       12.0110           0
      4844 MEMB     40       PMPE     H15R     HAL2     0.900000E-01   1.00800           0
      4845 MEMB     40       PMPE     H15S     HAL2     0.900000E-01   1.00800           0
      4846 MEMB     40       PMPE     C216     CTL3    -0.270000       12.0110           0
      4847 MEMB     40       PMPE     H16R     HAL3     0.900000E-01   1.00800           0
      4848 MEMB     40       PMPE     H16S     HAL3     0.900000E-01   1.00800           0
      4849 MEMB     40       PMPE     H16T     HAL3     0.900000E-01   1.00800           0
      4850 MEMB     40       PMPE     C33      CTL2    -0.180000       12.0110           0
      4851 MEMB     40       PMPE     H3X      HAL2     0.900000E-01   1.00800           0
      4852 MEMB     40       PMPE     H3Y      HAL2     0.900000E-01   1.00800           0
      4853 MEMB     40       PMPE     C34      CTL2    -0.180000       12.0110           0
      4854 MEMB     40       PMPE     H4X      HAL2     0.900000E-01   1.00800           0
      4855 MEMB     40       PMPE     H4Y      HAL2     0.900000E-01   1.00800           0
      4856 MEMB     40       PMPE     C35      CTL2    -0.180000       12.0110           0
      4857 MEMB     40       PMPE     H5X      HAL2     0.900000E-01   1.00800           0
      4858 MEMB     40       PMPE     H5Y      HAL2     0.900000E-01   1.00800           0
      4859 MEMB     40       PMPE     C36      CTL2    -0.180000       12.0110           0
      4860 MEMB     40       PMPE     H6X      HAL2     0.900000E-01   1.00800           0
      4861 MEMB     40       PMPE     H6Y      HAL2     0.900000E-01   1.00800           0
      4862 MEMB     40       PMPE     C37      CTL2    -0.180000       12.0110           0
      4863 MEMB     40       PMPE     H7X      HAL2     0.900000E-01   1.00800           0
      4864 MEMB     40       PMPE     H7Y      HAL2     0.900000E-01   1.00800           0
      4865 MEMB     40       PMPE     C38      CTL2    -0.180000       12.0110           0
      4866 MEMB     40       PMPE     H8X      HAL2     0.900000E-01   1.00800           0
      4867 MEMB     40       PMPE     H8Y      HAL2     0.900000E-01   1.00800           0
      4868 MEMB     40       PMPE     C39      CTL2    -0.180000       12.0110           0
      4869 MEMB     40       PMPE     H9X      HAL2     0.900000E-01   1.00800           0
      4870 MEMB     40       PMPE     H9Y      HAL2     0.900000E-01   1.00800           0
      4871 MEMB     40       PMPE     C310     CTL2    -0.180000       12.0110           0
      4872 MEMB     40       PMPE     H10X     HAL2     0.900000E-01   1.00800           0
      4873 MEMB     40       PMPE     H10Y     HAL2     0.900000E-01   1.00800           0
      4874 MEMB     40       PMPE     C311     CTL2    -0.180000       12.0110           0
      4875 MEMB     40       PMPE     H11X     HAL2     0.900000E-01   1.00800           0
      4876 MEMB     40       PMPE     H11Y     HAL2     0.900000E-01   1.00800           0
      4877 MEMB     40       PMPE     C312     CTL2    -0.180000       12.0110           0
      4878 MEMB     40       PMPE     H12X     HAL2     0.900000E-01   1.00800           0
      4879 MEMB     40       PMPE     H12Y     HAL2     0.900000E-01   1.00800           0
      4880 MEMB     40       PMPE     C313     CTL2    -0.180000       12.0110           0
      4881 MEMB     40       PMPE     H13X     HAL2     0.900000E-01   1.00800           0
      4882 MEMB     40       PMPE     H13Y     HAL2     0.900000E-01   1.00800           0
      4883 MEMB     40       PMPE     C314     CTL2    -0.180000       12.0110           0
      4884 MEMB     40       PMPE     H14X     HAL2     0.900000E-01   1.00800           0
      4885 MEMB     40       PMPE     H14Y     HAL2     0.900000E-01   1.00800           0
      4886 MEMB     40       PMPE     C315     CTL2    -0.180000       12.0110           0
      4887 MEMB     40       PMPE     H15X     HAL2     0.900000E-01   1.00800           0
      4888 MEMB     40       PMPE     H15Y     HAL2     0.900000E-01   1.00800           0
      4889 MEMB     40       PMPE     C316     CTL3    -0.270000       12.0110           0
      4890 MEMB     40       PMPE     H16X     HAL3     0.900000E-01   1.00800           0
      4891 MEMB     40       PMPE     H16Y     HAL3     0.900000E-01   1.00800           0
      4892 MEMB     40       PMPE     H16Z     HAL3     0.900000E-01   1.00800           0
      4893 MEMB     41       PMPE     N        NH3L    -0.300000       14.0070           0
      4894 MEMB     41       PMPE     HN1      HCL      0.330000       1.00800           0
      4895 MEMB     41       PMPE     HN2      HCL      0.330000       1.00800           0
      4896 MEMB     41       PMPE     HN3      HCL      0.330000       1.00800           0
      4897 MEMB     41       PMPE     C12      CTL2     0.130000       12.0110           0
      4898 MEMB     41       PMPE     H12A     HAL2     0.900000E-01   1.00800           0
      4899 MEMB     41       PMPE     H12B     HAL2     0.900000E-01   1.00800           0
      4900 MEMB     41       PMPE     C11      CTL2    -0.800000E-01   12.0110           0
      4901 MEMB     41       PMPE     H11A     HAL2     0.900000E-01   1.00800           0
      4902 MEMB     41       PMPE     H11B     HAL2     0.900000E-01   1.00800           0
      4903 MEMB     41       PMPE     P        PL        1.50000       30.9740           0
      4904 MEMB     41       PMPE     O13      O2L     -0.780000       15.9994           0
      4905 MEMB     41       PMPE     O14      O2L     -0.780000       15.9994           0
      4906 MEMB     41       PMPE     O11      OSLP    -0.570000       15.9994           0
      4907 MEMB     41       PMPE     O12      OSLP    -0.570000       15.9994           0
      4908 MEMB     41       PMPE     C1       CTL2    -0.800000E-01   12.0110           0
      4909 MEMB     41       PMPE     HA       HAL2     0.900000E-01   1.00800           0
      4910 MEMB     41       PMPE     HB       HAL2     0.900000E-01   1.00800           0
      4911 MEMB     41       PMPE     C2       CTL1     0.170000       12.0110           0
      4912 MEMB     41       PMPE     HS       HAL1     0.900000E-01   1.00800           0
      4913 MEMB     41       PMPE     O21      OSL     -0.490000       15.9994           0
      4914 MEMB     41       PMPE     C21      CL       0.900000       12.0110           0
      4915 MEMB     41       PMPE     O22      OBL     -0.630000       15.9994           0
      4916 MEMB     41       PMPE     C22      CTL2    -0.220000       12.0110           0
      4917 MEMB     41       PMPE     H2R      HAL2     0.900000E-01   1.00800           0
      4918 MEMB     41       PMPE     H2S      HAL2     0.900000E-01   1.00800           0
      4919 MEMB     41       PMPE     C3       CTL2     0.800000E-01   12.0110           0
      4920 MEMB     41       PMPE     HX       HAL2     0.900000E-01   1.00800           0
      4921 MEMB     41       PMPE     HY       HAL2     0.900000E-01   1.00800           0
      4922 MEMB     41       PMPE     O31      OSL     -0.490000       15.9994           0
      4923 MEMB     41       PMPE     C31      CL       0.900000       12.0110           0
      4924 MEMB     41       PMPE     O32      OBL     -0.630000       15.9994           0
      4925 MEMB     41       PMPE     C32      CTL2    -0.220000       12.0110           0
      4926 MEMB     41       PMPE     H2X      HAL2     0.900000E-01   1.00800           0
      4927 MEMB     41       PMPE     H2Y      HAL2     0.900000E-01   1.00800           0
      4928 MEMB     41       PMPE     C23      CTL2    -0.180000       12.0110           0
      4929 MEMB     41       PMPE     H3R      HAL2     0.900000E-01   1.00800           0
      4930 MEMB     41       PMPE     H3S      HAL2     0.900000E-01   1.00800           0
      4931 MEMB     41       PMPE     C24      CTL2    -0.180000       12.0110           0
      4932 MEMB     41       PMPE     H4R      HAL2     0.900000E-01   1.00800           0
      4933 MEMB     41       PMPE     H4S      HAL2     0.900000E-01   1.00800           0
      4934 MEMB     41       PMPE     C25      CTL2    -0.180000       12.0110           0
      4935 MEMB     41       PMPE     H5R      HAL2     0.900000E-01   1.00800           0
      4936 MEMB     41       PMPE     H5S      HAL2     0.900000E-01   1.00800           0
      4937 MEMB     41       PMPE     C26      CTL2    -0.180000       12.0110           0
      4938 MEMB     41       PMPE     H6R      HAL2     0.900000E-01   1.00800           0
      4939 MEMB     41       PMPE     H6S      HAL2     0.900000E-01   1.00800           0
      4940 MEMB     41       PMPE     C27      CTL2    -0.180000       12.0110           0
      4941 MEMB     41       PMPE     H7R      HAL2     0.900000E-01   1.00800           0
      4942 MEMB     41       PMPE     H7S      HAL2     0.900000E-01   1.00800           0
      4943 MEMB     41       PMPE     C28      CTL2    -0.180000       12.0110           0
      4944 MEMB     41       PMPE     H8R      HAL2     0.900000E-01   1.00800           0
      4945 MEMB     41       PMPE     H8S      HAL2     0.900000E-01   1.00800           0
      4946 MEMB     41       PMPE     C29      CG3RC1  -0.900000E-01   12.0110           0
      4947 MEMB     41       PMPE     H9R      HGA1     0.900000E-01   1.00800           0
      4948 MEMB     41       PMPE     C217     CG3C31  -0.180000       12.0110           0
      4949 MEMB     41       PMPE     H17R     HGA2     0.900000E-01   1.00800           0
      4950 MEMB     41       PMPE     H17S     HGA2     0.900000E-01   1.00800           0
      4951 MEMB     41       PMPE     C210     CG3RC1  -0.900000E-01   12.0110           0
      4952 MEMB     41       PMPE     H10R     HGA1     0.900000E-01   1.00800           0
      4953 MEMB     41       PMPE     C211     CTL2    -0.180000       12.0110           0
      4954 MEMB     41       PMPE     H11R     HAL2     0.900000E-01   1.00800           0
      4955 MEMB     41       PMPE     H11S     HAL2     0.900000E-01   1.00800           0
      4956 MEMB     41       PMPE     C212     CTL2    -0.180000       12.0110           0
      4957 MEMB     41       PMPE     H12R     HAL2     0.900000E-01   1.00800           0
      4958 MEMB     41       PMPE     H12S     HAL2     0.900000E-01   1.00800           0
      4959 MEMB     41       PMPE     C213     CTL2    -0.180000       12.0110           0
      4960 MEMB     41       PMPE     H13R     HAL2     0.900000E-01   1.00800           0
      4961 MEMB     41       PMPE     H13S     HAL2     0.900000E-01   1.00800           0
      4962 MEMB     41       PMPE     C214     CTL2    -0.180000       12.0110           0
      4963 MEMB     41       PMPE     H14R     HAL2     0.900000E-01   1.00800           0
      4964 MEMB     41       PMPE     H14S     HAL2     0.900000E-01   1.00800           0
      4965 MEMB     41       PMPE     C215     CTL2    -0.180000       12.0110           0
      4966 MEMB     41       PMPE     H15R     HAL2     0.900000E-01   1.00800           0
      4967 MEMB     41       PMPE     H15S     HAL2     0.900000E-01   1.00800           0
      4968 MEMB     41       PMPE     C216     CTL3    -0.270000       12.0110           0
      4969 MEMB     41       PMPE     H16R     HAL3     0.900000E-01   1.00800           0
      4970 MEMB     41       PMPE     H16S     HAL3     0.900000E-01   1.00800           0
      4971 MEMB     41       PMPE     H16T     HAL3     0.900000E-01   1.00800           0
      4972 MEMB     41       PMPE     C33      CTL2    -0.180000       12.0110           0
      4973 MEMB     41       PMPE     H3X      HAL2     0.900000E-01   1.00800           0
      4974 MEMB     41       PMPE     H3Y      HAL2     0.900000E-01   1.00800           0
      4975 MEMB     41       PMPE     C34      CTL2    -0.180000       12.0110           0
      4976 MEMB     41       PMPE     H4X      HAL2     0.900000E-01   1.00800           0
      4977 MEMB     41       PMPE     H4Y      HAL2     0.900000E-01   1.00800           0
      4978 MEMB     41       PMPE     C35      CTL2    -0.180000       12.0110           0
      4979 MEMB     41       PMPE     H5X      HAL2     0.900000E-01   1.00800           0
      4980 MEMB     41       PMPE     H5Y      HAL2     0.900000E-01   1.00800           0
      4981 MEMB     41       PMPE     C36      CTL2    -0.180000       12.0110           0
      4982 MEMB     41       PMPE     H6X      HAL2     0.900000E-01   1.00800           0
      4983 MEMB     41       PMPE     H6Y      HAL2     0.900000E-01   1.00800           0
      4984 MEMB     41       PMPE     C37      CTL2    -0.180000       12.0110           0
      4985 MEMB     41       PMPE     H7X      HAL2     0.900000E-01   1.00800           0
      4986 MEMB     41       PMPE     H7Y      HAL2     0.900000E-01   1.00800           0
      4987 MEMB     41       PMPE     C38      CTL2    -0.180000       12.0110           0
      4988 MEMB     41       PMPE     H8X      HAL2     0.900000E-01   1.00800           0
      4989 MEMB     41       PMPE     H8Y      HAL2     0.900000E-01   1.00800           0
      4990 MEMB     41       PMPE     C39      CTL2    -0.180000       12.0110           0
      4991 MEMB     41       PMPE     H9X      HAL2     0.900000E-01   1.00800           0
      4992 MEMB     41       PMPE     H9Y      HAL2     0.900000E-01   1.00800           0
      4993 MEMB     41       PMPE     C310     CTL2    -0.180000       12.0110           0
      4994 MEMB     41       PMPE     H10X     HAL2     0.900000E-01   1.00800           0
      4995 MEMB     41       PMPE     H10Y     HAL2     0.900000E-01   1.00800           0
      4996 MEMB     41       PMPE     C311     CTL2    -0.180000       12.0110           0
      4997 MEMB     41       PMPE     H11X     HAL2     0.900000E-01   1.00800           0
      4998 MEMB     41       PMPE     H11Y     HAL2     0.900000E-01   1.00800           0
      4999 MEMB     41       PMPE     C312     CTL2    -0.180000       12.0110           0
      5000 MEMB     41       PMPE     H12X     HAL2     0.900000E-01   1.00800           0
      5001 MEMB     41       PMPE     H12Y     HAL2     0.900000E-01   1.00800           0
      5002 MEMB     41       PMPE     C313     CTL2    -0.180000       12.0110           0
      5003 MEMB     41       PMPE     H13X     HAL2     0.900000E-01   1.00800           0
      5004 MEMB     41       PMPE     H13Y     HAL2     0.900000E-01   1.00800           0
      5005 MEMB     41       PMPE     C314     CTL2    -0.180000       12.0110           0
      5006 MEMB     41       PMPE     H14X     HAL2     0.900000E-01   1.00800           0
      5007 MEMB     41       PMPE     H14Y     HAL2     0.900000E-01   1.00800           0
      5008 MEMB     41       PMPE     C315     CTL2    -0.180000       12.0110           0
      5009 MEMB     41       PMPE     H15X     HAL2     0.900000E-01   1.00800           0
      5010 MEMB     41       PMPE     H15Y     HAL2     0.900000E-01   1.00800           0
      5011 MEMB     41       PMPE     C316     CTL3    -0.270000       12.0110           0
      5012 MEMB     41       PMPE     H16X     HAL3     0.900000E-01   1.00800           0
      5013 MEMB     41       PMPE     H16Y     HAL3     0.900000E-01   1.00800           0
      5014 MEMB     41       PMPE     H16Z     HAL3     0.900000E-01   1.00800           0
      5015 MEMB     42       PVCL2    C3       CTL2    -0.800000E-01   12.0110           0
      5016 MEMB     42       PVCL2    HG31     HAL2     0.900000E-01   1.00800           0
      5017 MEMB     42       PVCL2    HG32     HAL2     0.900000E-01   1.00800           0
      5018 MEMB     42       PVCL2    P3       PL        1.50000       30.9740           0
      5019 MEMB     42       PVCL2    OP33     O2L     -0.780000       15.9994           0
      5020 MEMB     42       PVCL2    OP34     O2L     -0.780000       15.9994           0
      5021 MEMB     42       PVCL2    OP31     OSLP    -0.570000       15.9994           0
      5022 MEMB     42       PVCL2    OP32     OSLP    -0.570000       15.9994           0
      5023 MEMB     42       PVCL2    C31      CTL2    -0.800000E-01   12.0110           0
      5024 MEMB     42       PVCL2    H31J     HAL2     0.900000E-01   1.00800           0
      5025 MEMB     42       PVCL2    H31K     HAL2     0.900000E-01   1.00800           0
      5026 MEMB     42       PVCL2    C2       CTL1     0.140000       12.0110           0
      5027 MEMB     42       PVCL2    HG22     HAL1     0.900000E-01   1.00800           0
      5028 MEMB     42       PVCL2    OG12     OHL     -0.650000       15.9994           0
      5029 MEMB     42       PVCL2    HO12     HOL      0.420000       1.00800           0
      5030 MEMB     42       PVCL2    C1       CTL2    -0.800000E-01   12.0110           0
      5031 MEMB     42       PVCL2    HG11     HAL2     0.900000E-01   1.00800           0
      5032 MEMB     42       PVCL2    HG12     HAL2     0.900000E-01   1.00800           0
      5033 MEMB     42       PVCL2    P1       PL        1.50000       30.9740           0
      5034 MEMB     42       PVCL2    OP13     O2L     -0.780000       15.9994           0
      5035 MEMB     42       PVCL2    OP14     O2L     -0.780000       15.9994           0
      5036 MEMB     42       PVCL2    OP11     OSLP    -0.570000       15.9994           0
      5037 MEMB     42       PVCL2    OP12     OSLP    -0.570000       15.9994           0
      5038 MEMB     42       PVCL2    C11      CTL2    -0.800000E-01   12.0110           0
      5039 MEMB     42       PVCL2    H11J     HAL2     0.900000E-01   1.00800           0
      5040 MEMB     42       PVCL2    H11K     HAL2     0.900000E-01   1.00800           0
      5041 MEMB     42       PVCL2    C12      CTL1     0.170000       12.0110           0
      5042 MEMB     42       PVCL2    H12J     HAL1     0.900000E-01   1.00800           0
      5043 MEMB     42       PVCL2    O12      OSL     -0.490000       15.9994           0
      5044 MEMB     42       PVCL2    CA1      CL       0.900000       12.0110           0
      5045 MEMB     42       PVCL2    OA1      OBL     -0.630000       15.9994           0
      5046 MEMB     42       PVCL2    CA2      CTL2    -0.220000       12.0110           0
      5047 MEMB     42       PVCL2    H2A      HAL2     0.900000E-01   1.00800           0
      5048 MEMB     42       PVCL2    H2B      HAL2     0.900000E-01   1.00800           0
      5049 MEMB     42       PVCL2    C13      CTL2     0.800000E-01   12.0110           0
      5050 MEMB     42       PVCL2    H13J     HAL2     0.900000E-01   1.00800           0
      5051 MEMB     42       PVCL2    H13K     HAL2     0.900000E-01   1.00800           0
      5052 MEMB     42       PVCL2    O13      OSL     -0.490000       15.9994           0
      5053 MEMB     42       PVCL2    CB1      CL       0.900000       12.0110           0
      5054 MEMB     42       PVCL2    OB1      OBL     -0.630000       15.9994           0
      5055 MEMB     42       PVCL2    CB2      CTL2    -0.220000       12.0110           0
      5056 MEMB     42       PVCL2    H2D      HAL2     0.900000E-01   1.00800           0
      5057 MEMB     42       PVCL2    H2E      HAL2     0.900000E-01   1.00800           0
      5058 MEMB     42       PVCL2    C32      CTL1     0.170000       12.0110           0
      5059 MEMB     42       PVCL2    H32J     HAL1     0.900000E-01   1.00800           0
      5060 MEMB     42       PVCL2    O32      OSL     -0.490000       15.9994           0
      5061 MEMB     42       PVCL2    CC1      CL       0.900000       12.0110           0
      5062 MEMB     42       PVCL2    OC1      OBL     -0.630000       15.9994           0
      5063 MEMB     42       PVCL2    CC2      CTL2    -0.220000       12.0110           0
      5064 MEMB     42       PVCL2    H2R      HAL2     0.900000E-01   1.00800           0
      5065 MEMB     42       PVCL2    H2S      HAL2     0.900000E-01   1.00800           0
      5066 MEMB     42       PVCL2    C33      CTL2     0.800000E-01   12.0110           0
      5067 MEMB     42       PVCL2    H33J     HAL2     0.900000E-01   1.00800           0
      5068 MEMB     42       PVCL2    H33K     HAL2     0.900000E-01   1.00800           0
      5069 MEMB     42       PVCL2    O33      OSL     -0.490000       15.9994           0
      5070 MEMB     42       PVCL2    CD1      CL       0.900000       12.0110           0
      5071 MEMB     42       PVCL2    OD1      OBL     -0.630000       15.9994           0
      5072 MEMB     42       PVCL2    CD2      CTL2    -0.220000       12.0110           0
      5073 MEMB     42       PVCL2    H2X      HAL2     0.900000E-01   1.00800           0
      5074 MEMB     42       PVCL2    H2Y      HAL2     0.900000E-01   1.00800           0
      5075 MEMB     42       PVCL2    CA3      CTL2    -0.180000       12.0110           0
      5076 MEMB     42       PVCL2    H3A      HAL2     0.900000E-01   1.00800           0
      5077 MEMB     42       PVCL2    H3B      HAL2     0.900000E-01   1.00800           0
      5078 MEMB     42       PVCL2    CA4      CTL2    -0.180000       12.0110           0
      5079 MEMB     42       PVCL2    H4A      HAL2     0.900000E-01   1.00800           0
      5080 MEMB     42       PVCL2    H4B      HAL2     0.900000E-01   1.00800           0
      5081 MEMB     42       PVCL2    CA5      CTL2    -0.180000       12.0110           0
      5082 MEMB     42       PVCL2    H5A      HAL2     0.900000E-01   1.00800           0
      5083 MEMB     42       PVCL2    H5B      HAL2     0.900000E-01   1.00800           0
      5084 MEMB     42       PVCL2    CA6      CTL2    -0.180000       12.0110           0
      5085 MEMB     42       PVCL2    H6A      HAL2     0.900000E-01   1.00800           0
      5086 MEMB     42       PVCL2    H6B      HAL2     0.900000E-01   1.00800           0
      5087 MEMB     42       PVCL2    CA7      CTL2    -0.180000       12.0110           0
      5088 MEMB     42       PVCL2    H7A      HAL2     0.900000E-01   1.00800           0
      5089 MEMB     42       PVCL2    H7B      HAL2     0.900000E-01   1.00800           0
      5090 MEMB     42       PVCL2    CA8      CTL2    -0.180000       12.0110           0
      5091 MEMB     42       PVCL2    H8A      HAL2     0.900000E-01   1.00800           0
      5092 MEMB     42       PVCL2    H8B      HAL2     0.900000E-01   1.00800           0
      5093 MEMB     42       PVCL2    CA9      CTL2    -0.180000       12.0110           0
      5094 MEMB     42       PVCL2    H9A      HAL2     0.900000E-01   1.00800           0
      5095 MEMB     42       PVCL2    H9B      HAL2     0.900000E-01   1.00800           0
      5096 MEMB     42       PVCL2    CA10     CTL2    -0.180000       12.0110           0
      5097 MEMB     42       PVCL2    H10A     HAL2     0.900000E-01   1.00800           0
      5098 MEMB     42       PVCL2    H10B     HAL2     0.900000E-01   1.00800           0
      5099 MEMB     42       PVCL2    CA11     CEL1    -0.150000       12.0110           0
      5100 MEMB     42       PVCL2    H11A     HEL1     0.150000       1.00800           0
      5101 MEMB     42       PVCL2    CA12     CEL1    -0.150000       12.0110           0
      5102 MEMB     42       PVCL2    H12A     HEL1     0.150000       1.00800           0
      5103 MEMB     42       PVCL2    CA13     CTL2    -0.180000       12.0110           0
      5104 MEMB     42       PVCL2    H13A     HAL2     0.900000E-01   1.00800           0
      5105 MEMB     42       PVCL2    H13B     HAL2     0.900000E-01   1.00800           0
      5106 MEMB     42       PVCL2    CA14     CTL2    -0.180000       12.0110           0
      5107 MEMB     42       PVCL2    H14A     HAL2     0.900000E-01   1.00800           0
      5108 MEMB     42       PVCL2    H14B     HAL2     0.900000E-01   1.00800           0
      5109 MEMB     42       PVCL2    CA15     CTL2    -0.180000       12.0110           0
      5110 MEMB     42       PVCL2    H15A     HAL2     0.900000E-01   1.00800           0
      5111 MEMB     42       PVCL2    H15B     HAL2     0.900000E-01   1.00800           0
      5112 MEMB     42       PVCL2    CA16     CTL2    -0.180000       12.0110           0
      5113 MEMB     42       PVCL2    H16A     HAL2     0.900000E-01   1.00800           0
      5114 MEMB     42       PVCL2    H16B     HAL2     0.900000E-01   1.00800           0
      5115 MEMB     42       PVCL2    CA17     CTL2    -0.180000       12.0110           0
      5116 MEMB     42       PVCL2    H17A     HAL2     0.900000E-01   1.00800           0
      5117 MEMB     42       PVCL2    H17B     HAL2     0.900000E-01   1.00800           0
      5118 MEMB     42       PVCL2    CA18     CTL3    -0.270000       12.0110           0
      5119 MEMB     42       PVCL2    H18A     HAL3     0.900000E-01   1.00800           0
      5120 MEMB     42       PVCL2    H18B     HAL3     0.900000E-01   1.00800           0
      5121 MEMB     42       PVCL2    H18C     HAL3     0.900000E-01   1.00800           0
      5122 MEMB     42       PVCL2    CB3      CTL2    -0.180000       12.0110           0
      5123 MEMB     42       PVCL2    H3D      HAL2     0.900000E-01   1.00800           0
      5124 MEMB     42       PVCL2    H3E      HAL2     0.900000E-01   1.00800           0
      5125 MEMB     42       PVCL2    CB4      CTL2    -0.180000       12.0110           0
      5126 MEMB     42       PVCL2    H4D      HAL2     0.900000E-01   1.00800           0
      5127 MEMB     42       PVCL2    H4E      HAL2     0.900000E-01   1.00800           0
      5128 MEMB     42       PVCL2    CB5      CTL2    -0.180000       12.0110           0
      5129 MEMB     42       PVCL2    H5D      HAL2     0.900000E-01   1.00800           0
      5130 MEMB     42       PVCL2    H5E      HAL2     0.900000E-01   1.00800           0
      5131 MEMB     42       PVCL2    CB6      CTL2    -0.180000       12.0110           0
      5132 MEMB     42       PVCL2    H6D      HAL2     0.900000E-01   1.00800           0
      5133 MEMB     42       PVCL2    H6E      HAL2     0.900000E-01   1.00800           0
      5134 MEMB     42       PVCL2    CB7      CTL2    -0.180000       12.0110           0
      5135 MEMB     42       PVCL2    H7D      HAL2     0.900000E-01   1.00800           0
      5136 MEMB     42       PVCL2    H7E      HAL2     0.900000E-01   1.00800           0
      5137 MEMB     42       PVCL2    CB8      CTL2    -0.180000       12.0110           0
      5138 MEMB     42       PVCL2    H8D      HAL2     0.900000E-01   1.00800           0
      5139 MEMB     42       PVCL2    H8E      HAL2     0.900000E-01   1.00800           0
      5140 MEMB     42       PVCL2    CB9      CTL2    -0.180000       12.0110           0
      5141 MEMB     42       PVCL2    H9D      HAL2     0.900000E-01   1.00800           0
      5142 MEMB     42       PVCL2    H9E      HAL2     0.900000E-01   1.00800           0
      5143 MEMB     42       PVCL2    CB10     CTL2    -0.180000       12.0110           0
      5144 MEMB     42       PVCL2    H10D     HAL2     0.900000E-01   1.00800           0
      5145 MEMB     42       PVCL2    H10E     HAL2     0.900000E-01   1.00800           0
      5146 MEMB     42       PVCL2    CB11     CTL2    -0.180000       12.0110           0
      5147 MEMB     42       PVCL2    H11D     HAL2     0.900000E-01   1.00800           0
      5148 MEMB     42       PVCL2    H11E     HAL2     0.900000E-01   1.00800           0
      5149 MEMB     42       PVCL2    CB12     CTL2    -0.180000       12.0110           0
      5150 MEMB     42       PVCL2    H12D     HAL2     0.900000E-01   1.00800           0
      5151 MEMB     42       PVCL2    H12E     HAL2     0.900000E-01   1.00800           0
      5152 MEMB     42       PVCL2    CB13     CTL2    -0.180000       12.0110           0
      5153 MEMB     42       PVCL2    H13D     HAL2     0.900000E-01   1.00800           0
      5154 MEMB     42       PVCL2    H13E     HAL2     0.900000E-01   1.00800           0
      5155 MEMB     42       PVCL2    CB14     CTL2    -0.180000       12.0110           0
      5156 MEMB     42       PVCL2    H14D     HAL2     0.900000E-01   1.00800           0
      5157 MEMB     42       PVCL2    H14E     HAL2     0.900000E-01   1.00800           0
      5158 MEMB     42       PVCL2    CB15     CTL2    -0.180000       12.0110           0
      5159 MEMB     42       PVCL2    H15D     HAL2     0.900000E-01   1.00800           0
      5160 MEMB     42       PVCL2    H15E     HAL2     0.900000E-01   1.00800           0
      5161 MEMB     42       PVCL2    CB16     CTL3    -0.270000       12.0110           0
      5162 MEMB     42       PVCL2    H16D     HAL3     0.900000E-01   1.00800           0
      5163 MEMB     42       PVCL2    H16E     HAL3     0.900000E-01   1.00800           0
      5164 MEMB     42       PVCL2    H16F     HAL3     0.900000E-01   1.00800           0
      5165 MEMB     42       PVCL2    CC3      CTL2    -0.180000       12.0110           0
      5166 MEMB     42       PVCL2    H3R      HAL2     0.900000E-01   1.00800           0
      5167 MEMB     42       PVCL2    H3S      HAL2     0.900000E-01   1.00800           0
      5168 MEMB     42       PVCL2    CC4      CTL2    -0.180000       12.0110           0
      5169 MEMB     42       PVCL2    H4R      HAL2     0.900000E-01   1.00800           0
      5170 MEMB     42       PVCL2    H4S      HAL2     0.900000E-01   1.00800           0
      5171 MEMB     42       PVCL2    CC5      CTL2    -0.180000       12.0110           0
      5172 MEMB     42       PVCL2    H5R      HAL2     0.900000E-01   1.00800           0
      5173 MEMB     42       PVCL2    H5S      HAL2     0.900000E-01   1.00800           0
      5174 MEMB     42       PVCL2    CC6      CTL2    -0.180000       12.0110           0
      5175 MEMB     42       PVCL2    H6R      HAL2     0.900000E-01   1.00800           0
      5176 MEMB     42       PVCL2    H6S      HAL2     0.900000E-01   1.00800           0
      5177 MEMB     42       PVCL2    CC7      CTL2    -0.180000       12.0110           0
      5178 MEMB     42       PVCL2    H7R      HAL2     0.900000E-01   1.00800           0
      5179 MEMB     42       PVCL2    H7S      HAL2     0.900000E-01   1.00800           0
      5180 MEMB     42       PVCL2    CC8      CTL2    -0.180000       12.0110           0
      5181 MEMB     42       PVCL2    H8R      HAL2     0.900000E-01   1.00800           0
      5182 MEMB     42       PVCL2    H8S      HAL2     0.900000E-01   1.00800           0
      5183 MEMB     42       PVCL2    CC9      CTL2    -0.180000       12.0110           0
      5184 MEMB     42       PVCL2    H9R      HAL2     0.900000E-01   1.00800           0
      5185 MEMB     42       PVCL2    H9S      HAL2     0.900000E-01   1.00800           0
      5186 MEMB     42       PVCL2    CC10     CTL2    -0.180000       12.0110           0
      5187 MEMB     42       PVCL2    H10R     HAL2     0.900000E-01   1.00800           0
      5188 MEMB     42       PVCL2    H10S     HAL2     0.900000E-01   1.00800           0
      5189 MEMB     42       PVCL2    CC11     CEL1    -0.150000       12.0110           0
      5190 MEMB     42       PVCL2    H11R     HEL1     0.150000       1.00800           0
      5191 MEMB     42       PVCL2    CC12     CEL1    -0.150000       12.0110           0
      5192 MEMB     42       PVCL2    H12R     HEL1     0.150000       1.00800           0
      5193 MEMB     42       PVCL2    CC13     CTL2    -0.180000       12.0110           0
      5194 MEMB     42       PVCL2    H13R     HAL2     0.900000E-01   1.00800           0
      5195 MEMB     42       PVCL2    H13S     HAL2     0.900000E-01   1.00800           0
      5196 MEMB     42       PVCL2    CC14     CTL2    -0.180000       12.0110           0
      5197 MEMB     42       PVCL2    H14R     HAL2     0.900000E-01   1.00800           0
      5198 MEMB     42       PVCL2    H14S     HAL2     0.900000E-01   1.00800           0
      5199 MEMB     42       PVCL2    CC15     CTL2    -0.180000       12.0110           0
      5200 MEMB     42       PVCL2    H15R     HAL2     0.900000E-01   1.00800           0
      5201 MEMB     42       PVCL2    H15S     HAL2     0.900000E-01   1.00800           0
      5202 MEMB     42       PVCL2    CC16     CTL2    -0.180000       12.0110           0
      5203 MEMB     42       PVCL2    H16R     HAL2     0.900000E-01   1.00800           0
      5204 MEMB     42       PVCL2    H16S     HAL2     0.900000E-01   1.00800           0
      5205 MEMB     42       PVCL2    CC17     CTL2    -0.180000       12.0110           0
      5206 MEMB     42       PVCL2    H17R     HAL2     0.900000E-01   1.00800           0
      5207 MEMB     42       PVCL2    H17S     HAL2     0.900000E-01   1.00800           0
      5208 MEMB     42       PVCL2    CC18     CTL3    -0.270000       12.0110           0
      5209 MEMB     42       PVCL2    H18R     HAL3     0.900000E-01   1.00800           0
      5210 MEMB     42       PVCL2    H18S     HAL3     0.900000E-01   1.00800           0
      5211 MEMB     42       PVCL2    H18T     HAL3     0.900000E-01   1.00800           0
      5212 MEMB     42       PVCL2    CD3      CTL2    -0.180000       12.0110           0
      5213 MEMB     42       PVCL2    H3X      HAL2     0.900000E-01   1.00800           0
      5214 MEMB     42       PVCL2    H3Y      HAL2     0.900000E-01   1.00800           0
      5215 MEMB     42       PVCL2    CD4      CTL2    -0.180000       12.0110           0
      5216 MEMB     42       PVCL2    H4X      HAL2     0.900000E-01   1.00800           0
      5217 MEMB     42       PVCL2    H4Y      HAL2     0.900000E-01   1.00800           0
      5218 MEMB     42       PVCL2    CD5      CTL2    -0.180000       12.0110           0
      5219 MEMB     42       PVCL2    H5X      HAL2     0.900000E-01   1.00800           0
      5220 MEMB     42       PVCL2    H5Y      HAL2     0.900000E-01   1.00800           0
      5221 MEMB     42       PVCL2    CD6      CTL2    -0.180000       12.0110           0
      5222 MEMB     42       PVCL2    H6X      HAL2     0.900000E-01   1.00800           0
      5223 MEMB     42       PVCL2    H6Y      HAL2     0.900000E-01   1.00800           0
      5224 MEMB     42       PVCL2    CD7      CTL2    -0.180000       12.0110           0
      5225 MEMB     42       PVCL2    H7X      HAL2     0.900000E-01   1.00800           0
      5226 MEMB     42       PVCL2    H7Y      HAL2     0.900000E-01   1.00800           0
      5227 MEMB     42       PVCL2    CD8      CTL2    -0.180000       12.0110           0
      5228 MEMB     42       PVCL2    H8X      HAL2     0.900000E-01   1.00800           0
      5229 MEMB     42       PVCL2    H8Y      HAL2     0.900000E-01   1.00800           0
      5230 MEMB     42       PVCL2    CD9      CTL2    -0.180000       12.0110           0
      5231 MEMB     42       PVCL2    H9X      HAL2     0.900000E-01   1.00800           0
      5232 MEMB     42       PVCL2    H9Y      HAL2     0.900000E-01   1.00800           0
      5233 MEMB     42       PVCL2    CD10     CTL2    -0.180000       12.0110           0
      5234 MEMB     42       PVCL2    H10X     HAL2     0.900000E-01   1.00800           0
      5235 MEMB     42       PVCL2    H10Y     HAL2     0.900000E-01   1.00800           0
      5236 MEMB     42       PVCL2    CD11     CTL2    -0.180000       12.0110           0
      5237 MEMB     42       PVCL2    H11X     HAL2     0.900000E-01   1.00800           0
      5238 MEMB     42       PVCL2    H11Y     HAL2     0.900000E-01   1.00800           0
      5239 MEMB     42       PVCL2    CD12     CTL2    -0.180000       12.0110           0
      5240 MEMB     42       PVCL2    H12X     HAL2     0.900000E-01   1.00800           0
      5241 MEMB     42       PVCL2    H12Y     HAL2     0.900000E-01   1.00800           0
      5242 MEMB     42       PVCL2    CD13     CTL2    -0.180000       12.0110           0
      5243 MEMB     42       PVCL2    H13X     HAL2     0.900000E-01   1.00800           0
      5244 MEMB     42       PVCL2    H13Y     HAL2     0.900000E-01   1.00800           0
      5245 MEMB     42       PVCL2    CD14     CTL2    -0.180000       12.0110           0
      5246 MEMB     42       PVCL2    H14X     HAL2     0.900000E-01   1.00800           0
      5247 MEMB     42       PVCL2    H14Y     HAL2     0.900000E-01   1.00800           0
      5248 MEMB     42       PVCL2    CD15     CTL2    -0.180000       12.0110           0
      5249 MEMB     42       PVCL2    H15X     HAL2     0.900000E-01   1.00800           0
      5250 MEMB     42       PVCL2    H15Y     HAL2     0.900000E-01   1.00800           0
      5251 MEMB     42       PVCL2    CD16     CTL3    -0.270000       12.0110           0
      5252 MEMB     42       PVCL2    H16X     HAL3     0.900000E-01   1.00800           0
      5253 MEMB     42       PVCL2    H16Y     HAL3     0.900000E-01   1.00800           0
      5254 MEMB     42       PVCL2    H16Z     HAL3     0.900000E-01   1.00800           0
      5255 MEMB     43       PMPE     N        NH3L    -0.300000       14.0070           0
      5256 MEMB     43       PMPE     HN1      HCL      0.330000       1.00800           0
      5257 MEMB     43       PMPE     HN2      HCL      0.330000       1.00800           0
      5258 MEMB     43       PMPE     HN3      HCL      0.330000       1.00800           0
      5259 MEMB     43       PMPE     C12      CTL2     0.130000       12.0110           0
      5260 MEMB     43       PMPE     H12A     HAL2     0.900000E-01   1.00800           0
      5261 MEMB     43       PMPE     H12B     HAL2     0.900000E-01   1.00800           0
      5262 MEMB     43       PMPE     C11      CTL2    -0.800000E-01   12.0110           0
      5263 MEMB     43       PMPE     H11A     HAL2     0.900000E-01   1.00800           0
      5264 MEMB     43       PMPE     H11B     HAL2     0.900000E-01   1.00800           0
      5265 MEMB     43       PMPE     P        PL        1.50000       30.9740           0
      5266 MEMB     43       PMPE     O13      O2L     -0.780000       15.9994           0
      5267 MEMB     43       PMPE     O14      O2L     -0.780000       15.9994           0
      5268 MEMB     43       PMPE     O11      OSLP    -0.570000       15.9994           0
      5269 MEMB     43       PMPE     O12      OSLP    -0.570000       15.9994           0
      5270 MEMB     43       PMPE     C1       CTL2    -0.800000E-01   12.0110           0
      5271 MEMB     43       PMPE     HA       HAL2     0.900000E-01   1.00800           0
      5272 MEMB     43       PMPE     HB       HAL2     0.900000E-01   1.00800           0
      5273 MEMB     43       PMPE     C2       CTL1     0.170000       12.0110           0
      5274 MEMB     43       PMPE     HS       HAL1     0.900000E-01   1.00800           0
      5275 MEMB     43       PMPE     O21      OSL     -0.490000       15.9994           0
      5276 MEMB     43       PMPE     C21      CL       0.900000       12.0110           0
      5277 MEMB     43       PMPE     O22      OBL     -0.630000       15.9994           0
      5278 MEMB     43       PMPE     C22      CTL2    -0.220000       12.0110           0
      5279 MEMB     43       PMPE     H2R      HAL2     0.900000E-01   1.00800           0
      5280 MEMB     43       PMPE     H2S      HAL2     0.900000E-01   1.00800           0
      5281 MEMB     43       PMPE     C3       CTL2     0.800000E-01   12.0110           0
      5282 MEMB     43       PMPE     HX       HAL2     0.900000E-01   1.00800           0
      5283 MEMB     43       PMPE     HY       HAL2     0.900000E-01   1.00800           0
      5284 MEMB     43       PMPE     O31      OSL     -0.490000       15.9994           0
      5285 MEMB     43       PMPE     C31      CL       0.900000       12.0110           0
      5286 MEMB     43       PMPE     O32      OBL     -0.630000       15.9994           0
      5287 MEMB     43       PMPE     C32      CTL2    -0.220000       12.0110           0
      5288 MEMB     43       PMPE     H2X      HAL2     0.900000E-01   1.00800           0
      5289 MEMB     43       PMPE     H2Y      HAL2     0.900000E-01   1.00800           0
      5290 MEMB     43       PMPE     C23      CTL2    -0.180000       12.0110           0
      5291 MEMB     43       PMPE     H3R      HAL2     0.900000E-01   1.00800           0
      5292 MEMB     43       PMPE     H3S      HAL2     0.900000E-01   1.00800           0
      5293 MEMB     43       PMPE     C24      CTL2    -0.180000       12.0110           0
      5294 MEMB     43       PMPE     H4R      HAL2     0.900000E-01   1.00800           0
      5295 MEMB     43       PMPE     H4S      HAL2     0.900000E-01   1.00800           0
      5296 MEMB     43       PMPE     C25      CTL2    -0.180000       12.0110           0
      5297 MEMB     43       PMPE     H5R      HAL2     0.900000E-01   1.00800           0
      5298 MEMB     43       PMPE     H5S      HAL2     0.900000E-01   1.00800           0
      5299 MEMB     43       PMPE     C26      CTL2    -0.180000       12.0110           0
      5300 MEMB     43       PMPE     H6R      HAL2     0.900000E-01   1.00800           0
      5301 MEMB     43       PMPE     H6S      HAL2     0.900000E-01   1.00800           0
      5302 MEMB     43       PMPE     C27      CTL2    -0.180000       12.0110           0
      5303 MEMB     43       PMPE     H7R      HAL2     0.900000E-01   1.00800           0
      5304 MEMB     43       PMPE     H7S      HAL2     0.900000E-01   1.00800           0
      5305 MEMB     43       PMPE     C28      CTL2    -0.180000       12.0110           0
      5306 MEMB     43       PMPE     H8R      HAL2     0.900000E-01   1.00800           0
      5307 MEMB     43       PMPE     H8S      HAL2     0.900000E-01   1.00800           0
      5308 MEMB     43       PMPE     C29      CG3RC1  -0.900000E-01   12.0110           0
      5309 MEMB     43       PMPE     H9R      HGA1     0.900000E-01   1.00800           0
      5310 MEMB     43       PMPE     C217     CG3C31  -0.180000       12.0110           0
      5311 MEMB     43       PMPE     H17R     HGA2     0.900000E-01   1.00800           0
      5312 MEMB     43       PMPE     H17S     HGA2     0.900000E-01   1.00800           0
      5313 MEMB     43       PMPE     C210     CG3RC1  -0.900000E-01   12.0110           0
      5314 MEMB     43       PMPE     H10R     HGA1     0.900000E-01   1.00800           0
      5315 MEMB     43       PMPE     C211     CTL2    -0.180000       12.0110           0
      5316 MEMB     43       PMPE     H11R     HAL2     0.900000E-01   1.00800           0
      5317 MEMB     43       PMPE     H11S     HAL2     0.900000E-01   1.00800           0
      5318 MEMB     43       PMPE     C212     CTL2    -0.180000       12.0110           0
      5319 MEMB     43       PMPE     H12R     HAL2     0.900000E-01   1.00800           0
      5320 MEMB     43       PMPE     H12S     HAL2     0.900000E-01   1.00800           0
      5321 MEMB     43       PMPE     C213     CTL2    -0.180000       12.0110           0
      5322 MEMB     43       PMPE     H13R     HAL2     0.900000E-01   1.00800           0
      5323 MEMB     43       PMPE     H13S     HAL2     0.900000E-01   1.00800           0
      5324 MEMB     43       PMPE     C214     CTL2    -0.180000       12.0110           0
      5325 MEMB     43       PMPE     H14R     HAL2     0.900000E-01   1.00800           0
      5326 MEMB     43       PMPE     H14S     HAL2     0.900000E-01   1.00800           0
      5327 MEMB     43       PMPE     C215     CTL2    -0.180000       12.0110           0
      5328 MEMB     43       PMPE     H15R     HAL2     0.900000E-01   1.00800           0
      5329 MEMB     43       PMPE     H15S     HAL2     0.900000E-01   1.00800           0
      5330 MEMB     43       PMPE     C216     CTL3    -0.270000       12.0110           0
      5331 MEMB     43       PMPE     H16R     HAL3     0.900000E-01   1.00800           0
      5332 MEMB     43       PMPE     H16S     HAL3     0.900000E-01   1.00800           0
      5333 MEMB     43       PMPE     H16T     HAL3     0.900000E-01   1.00800           0
      5334 MEMB     43       PMPE     C33      CTL2    -0.180000       12.0110           0
      5335 MEMB     43       PMPE     H3X      HAL2     0.900000E-01   1.00800           0
      5336 MEMB     43       PMPE     H3Y      HAL2     0.900000E-01   1.00800           0
      5337 MEMB     43       PMPE     C34      CTL2    -0.180000       12.0110           0
      5338 MEMB     43       PMPE     H4X      HAL2     0.900000E-01   1.00800           0
      5339 MEMB     43       PMPE     H4Y      HAL2     0.900000E-01   1.00800           0
      5340 MEMB     43       PMPE     C35      CTL2    -0.180000       12.0110           0
      5341 MEMB     43       PMPE     H5X      HAL2     0.900000E-01   1.00800           0
      5342 MEMB     43       PMPE     H5Y      HAL2     0.900000E-01   1.00800           0
      5343 MEMB     43       PMPE     C36      CTL2    -0.180000       12.0110           0
      5344 MEMB     43       PMPE     H6X      HAL2     0.900000E-01   1.00800           0
      5345 MEMB     43       PMPE     H6Y      HAL2     0.900000E-01   1.00800           0
      5346 MEMB     43       PMPE     C37      CTL2    -0.180000       12.0110           0
      5347 MEMB     43       PMPE     H7X      HAL2     0.900000E-01   1.00800           0
      5348 MEMB     43       PMPE     H7Y      HAL2     0.900000E-01   1.00800           0
      5349 MEMB     43       PMPE     C38      CTL2    -0.180000       12.0110           0
      5350 MEMB     43       PMPE     H8X      HAL2     0.900000E-01   1.00800           0
      5351 MEMB     43       PMPE     H8Y      HAL2     0.900000E-01   1.00800           0
      5352 MEMB     43       PMPE     C39      CTL2    -0.180000       12.0110           0
      5353 MEMB     43       PMPE     H9X      HAL2     0.900000E-01   1.00800           0
      5354 MEMB     43       PMPE     H9Y      HAL2     0.900000E-01   1.00800           0
      5355 MEMB     43       PMPE     C310     CTL2    -0.180000       12.0110           0
      5356 MEMB     43       PMPE     H10X     HAL2     0.900000E-01   1.00800           0
      5357 MEMB     43       PMPE     H10Y     HAL2     0.900000E-01   1.00800           0
      5358 MEMB     43       PMPE     C311     CTL2    -0.180000       12.0110           0
      5359 MEMB     43       PMPE     H11X     HAL2     0.900000E-01   1.00800           0
      5360 MEMB     43       PMPE     H11Y     HAL2     0.900000E-01   1.00800           0
      5361 MEMB     43       PMPE     C312     CTL2    -0.180000       12.0110           0
      5362 MEMB     43       PMPE     H12X     HAL2     0.900000E-01   1.00800           0
      5363 MEMB     43       PMPE     H12Y     HAL2     0.900000E-01   1.00800           0
      5364 MEMB     43       PMPE     C313     CTL2    -0.180000       12.0110           0
      5365 MEMB     43       PMPE     H13X     HAL2     0.900000E-01   1.00800           0
      5366 MEMB     43       PMPE     H13Y     HAL2     0.900000E-01   1.00800           0
      5367 MEMB     43       PMPE     C314     CTL2    -0.180000       12.0110           0
      5368 MEMB     43       PMPE     H14X     HAL2     0.900000E-01   1.00800           0
      5369 MEMB     43       PMPE     H14Y     HAL2     0.900000E-01   1.00800           0
      5370 MEMB     43       PMPE     C315     CTL2    -0.180000       12.0110           0
      5371 MEMB     43       PMPE     H15X     HAL2     0.900000E-01   1.00800           0
      5372 MEMB     43       PMPE     H15Y     HAL2     0.900000E-01   1.00800           0
      5373 MEMB     43       PMPE     C316     CTL3    -0.270000       12.0110           0
      5374 MEMB     43       PMPE     H16X     HAL3     0.900000E-01   1.00800           0
      5375 MEMB     43       PMPE     H16Y     HAL3     0.900000E-01   1.00800           0
      5376 MEMB     43       PMPE     H16Z     HAL3     0.900000E-01   1.00800           0
      5377 MEMB     44       PMPE     N        NH3L    -0.300000       14.0070           0
      5378 MEMB     44       PMPE     HN1      HCL      0.330000       1.00800           0
      5379 MEMB     44       PMPE     HN2      HCL      0.330000       1.00800           0
      5380 MEMB     44       PMPE     HN3      HCL      0.330000       1.00800           0
      5381 MEMB     44       PMPE     C12      CTL2     0.130000       12.0110           0
      5382 MEMB     44       PMPE     H12A     HAL2     0.900000E-01   1.00800           0
      5383 MEMB     44       PMPE     H12B     HAL2     0.900000E-01   1.00800           0
      5384 MEMB     44       PMPE     C11      CTL2    -0.800000E-01   12.0110           0
      5385 MEMB     44       PMPE     H11A     HAL2     0.900000E-01   1.00800           0
      5386 MEMB     44       PMPE     H11B     HAL2     0.900000E-01   1.00800           0
      5387 MEMB     44       PMPE     P        PL        1.50000       30.9740           0
      5388 MEMB     44       PMPE     O13      O2L     -0.780000       15.9994           0
      5389 MEMB     44       PMPE     O14      O2L     -0.780000       15.9994           0
      5390 MEMB     44       PMPE     O11      OSLP    -0.570000       15.9994           0
      5391 MEMB     44       PMPE     O12      OSLP    -0.570000       15.9994           0
      5392 MEMB     44       PMPE     C1       CTL2    -0.800000E-01   12.0110           0
      5393 MEMB     44       PMPE     HA       HAL2     0.900000E-01   1.00800           0
      5394 MEMB     44       PMPE     HB       HAL2     0.900000E-01   1.00800           0
      5395 MEMB     44       PMPE     C2       CTL1     0.170000       12.0110           0
      5396 MEMB     44       PMPE     HS       HAL1     0.900000E-01   1.00800           0
      5397 MEMB     44       PMPE     O21      OSL     -0.490000       15.9994           0
      5398 MEMB     44       PMPE     C21      CL       0.900000       12.0110           0
      5399 MEMB     44       PMPE     O22      OBL     -0.630000       15.9994           0
      5400 MEMB     44       PMPE     C22      CTL2    -0.220000       12.0110           0
      5401 MEMB     44       PMPE     H2R      HAL2     0.900000E-01   1.00800           0
      5402 MEMB     44       PMPE     H2S      HAL2     0.900000E-01   1.00800           0
      5403 MEMB     44       PMPE     C3       CTL2     0.800000E-01   12.0110           0
      5404 MEMB     44       PMPE     HX       HAL2     0.900000E-01   1.00800           0
      5405 MEMB     44       PMPE     HY       HAL2     0.900000E-01   1.00800           0
      5406 MEMB     44       PMPE     O31      OSL     -0.490000       15.9994           0
      5407 MEMB     44       PMPE     C31      CL       0.900000       12.0110           0
      5408 MEMB     44       PMPE     O32      OBL     -0.630000       15.9994           0
      5409 MEMB     44       PMPE     C32      CTL2    -0.220000       12.0110           0
      5410 MEMB     44       PMPE     H2X      HAL2     0.900000E-01   1.00800           0
      5411 MEMB     44       PMPE     H2Y      HAL2     0.900000E-01   1.00800           0
      5412 MEMB     44       PMPE     C23      CTL2    -0.180000       12.0110           0
      5413 MEMB     44       PMPE     H3R      HAL2     0.900000E-01   1.00800           0
      5414 MEMB     44       PMPE     H3S      HAL2     0.900000E-01   1.00800           0
      5415 MEMB     44       PMPE     C24      CTL2    -0.180000       12.0110           0
      5416 MEMB     44       PMPE     H4R      HAL2     0.900000E-01   1.00800           0
      5417 MEMB     44       PMPE     H4S      HAL2     0.900000E-01   1.00800           0
      5418 MEMB     44       PMPE     C25      CTL2    -0.180000       12.0110           0
      5419 MEMB     44       PMPE     H5R      HAL2     0.900000E-01   1.00800           0
      5420 MEMB     44       PMPE     H5S      HAL2     0.900000E-01   1.00800           0
      5421 MEMB     44       PMPE     C26      CTL2    -0.180000       12.0110           0
      5422 MEMB     44       PMPE     H6R      HAL2     0.900000E-01   1.00800           0
      5423 MEMB     44       PMPE     H6S      HAL2     0.900000E-01   1.00800           0
      5424 MEMB     44       PMPE     C27      CTL2    -0.180000       12.0110           0
      5425 MEMB     44       PMPE     H7R      HAL2     0.900000E-01   1.00800           0
      5426 MEMB     44       PMPE     H7S      HAL2     0.900000E-01   1.00800           0
      5427 MEMB     44       PMPE     C28      CTL2    -0.180000       12.0110           0
      5428 MEMB     44       PMPE     H8R      HAL2     0.900000E-01   1.00800           0
      5429 MEMB     44       PMPE     H8S      HAL2     0.900000E-01   1.00800           0
      5430 MEMB     44       PMPE     C29      CG3RC1  -0.900000E-01   12.0110           0
      5431 MEMB     44       PMPE     H9R      HGA1     0.900000E-01   1.00800           0
      5432 MEMB     44       PMPE     C217     CG3C31  -0.180000       12.0110           0
      5433 MEMB     44       PMPE     H17R     HGA2     0.900000E-01   1.00800           0
      5434 MEMB     44       PMPE     H17S     HGA2     0.900000E-01   1.00800           0
      5435 MEMB     44       PMPE     C210     CG3RC1  -0.900000E-01   12.0110           0
      5436 MEMB     44       PMPE     H10R     HGA1     0.900000E-01   1.00800           0
      5437 MEMB     44       PMPE     C211     CTL2    -0.180000       12.0110           0
      5438 MEMB     44       PMPE     H11R     HAL2     0.900000E-01   1.00800           0
      5439 MEMB     44       PMPE     H11S     HAL2     0.900000E-01   1.00800           0
      5440 MEMB     44       PMPE     C212     CTL2    -0.180000       12.0110           0
      5441 MEMB     44       PMPE     H12R     HAL2     0.900000E-01   1.00800           0
      5442 MEMB     44       PMPE     H12S     HAL2     0.900000E-01   1.00800           0
      5443 MEMB     44       PMPE     C213     CTL2    -0.180000       12.0110           0
      5444 MEMB     44       PMPE     H13R     HAL2     0.900000E-01   1.00800           0
      5445 MEMB     44       PMPE     H13S     HAL2     0.900000E-01   1.00800           0
      5446 MEMB     44       PMPE     C214     CTL2    -0.180000       12.0110           0
      5447 MEMB     44       PMPE     H14R     HAL2     0.900000E-01   1.00800           0
      5448 MEMB     44       PMPE     H14S     HAL2     0.900000E-01   1.00800           0
      5449 MEMB     44       PMPE     C215     CTL2    -0.180000       12.0110           0
      5450 MEMB     44       PMPE     H15R     HAL2     0.900000E-01   1.00800           0
      5451 MEMB     44       PMPE     H15S     HAL2     0.900000E-01   1.00800           0
      5452 MEMB     44       PMPE     C216     CTL3    -0.270000       12.0110           0
      5453 MEMB     44       PMPE     H16R     HAL3     0.900000E-01   1.00800           0
      5454 MEMB     44       PMPE     H16S     HAL3     0.900000E-01   1.00800           0
      5455 MEMB     44       PMPE     H16T     HAL3     0.900000E-01   1.00800           0
      5456 MEMB     44       PMPE     C33      CTL2    -0.180000       12.0110           0
      5457 MEMB     44       PMPE     H3X      HAL2     0.900000E-01   1.00800           0
      5458 MEMB     44       PMPE     H3Y      HAL2     0.900000E-01   1.00800           0
      5459 MEMB     44       PMPE     C34      CTL2    -0.180000       12.0110           0
      5460 MEMB     44       PMPE     H4X      HAL2     0.900000E-01   1.00800           0
      5461 MEMB     44       PMPE     H4Y      HAL2     0.900000E-01   1.00800           0
      5462 MEMB     44       PMPE     C35      CTL2    -0.180000       12.0110           0
      5463 MEMB     44       PMPE     H5X      HAL2     0.900000E-01   1.00800           0
      5464 MEMB     44       PMPE     H5Y      HAL2     0.900000E-01   1.00800           0
      5465 MEMB     44       PMPE     C36      CTL2    -0.180000       12.0110           0
      5466 MEMB     44       PMPE     H6X      HAL2     0.900000E-01   1.00800           0
      5467 MEMB     44       PMPE     H6Y      HAL2     0.900000E-01   1.00800           0
      5468 MEMB     44       PMPE     C37      CTL2    -0.180000       12.0110           0
      5469 MEMB     44       PMPE     H7X      HAL2     0.900000E-01   1.00800           0
      5470 MEMB     44       PMPE     H7Y      HAL2     0.900000E-01   1.00800           0
      5471 MEMB     44       PMPE     C38      CTL2    -0.180000       12.0110           0
      5472 MEMB     44       PMPE     H8X      HAL2     0.900000E-01   1.00800           0
      5473 MEMB     44       PMPE     H8Y      HAL2     0.900000E-01   1.00800           0
      5474 MEMB     44       PMPE     C39      CTL2    -0.180000       12.0110           0
      5475 MEMB     44       PMPE     H9X      HAL2     0.900000E-01   1.00800           0
      5476 MEMB     44       PMPE     H9Y      HAL2     0.900000E-01   1.00800           0
      5477 MEMB     44       PMPE     C310     CTL2    -0.180000       12.0110           0
      5478 MEMB     44       PMPE     H10X     HAL2     0.900000E-01   1.00800           0
      5479 MEMB     44       PMPE     H10Y     HAL2     0.900000E-01   1.00800           0
      5480 MEMB     44       PMPE     C311     CTL2    -0.180000       12.0110           0
      5481 MEMB     44       PMPE     H11X     HAL2     0.900000E-01   1.00800           0
      5482 MEMB     44       PMPE     H11Y     HAL2     0.900000E-01   1.00800           0
      5483 MEMB     44       PMPE     C312     CTL2    -0.180000       12.0110           0
      5484 MEMB     44       PMPE     H12X     HAL2     0.900000E-01   1.00800           0
      5485 MEMB     44       PMPE     H12Y     HAL2     0.900000E-01   1.00800           0
      5486 MEMB     44       PMPE     C313     CTL2    -0.180000       12.0110           0
      5487 MEMB     44       PMPE     H13X     HAL2     0.900000E-01   1.00800           0
      5488 MEMB     44       PMPE     H13Y     HAL2     0.900000E-01   1.00800           0
      5489 MEMB     44       PMPE     C314     CTL2    -0.180000       12.0110           0
      5490 MEMB     44       PMPE     H14X     HAL2     0.900000E-01   1.00800           0
      5491 MEMB     44       PMPE     H14Y     HAL2     0.900000E-01   1.00800           0
      5492 MEMB     44       PMPE     C315     CTL2    -0.180000       12.0110           0
      5493 MEMB     44       PMPE     H15X     HAL2     0.900000E-01   1.00800           0
      5494 MEMB     44       PMPE     H15Y     HAL2     0.900000E-01   1.00800           0
      5495 MEMB     44       PMPE     C316     CTL3    -0.270000       12.0110           0
      5496 MEMB     44       PMPE     H16X     HAL3     0.900000E-01   1.00800           0
      5497 MEMB     44       PMPE     H16Y     HAL3     0.900000E-01   1.00800           0
      5498 MEMB     44       PMPE     H16Z     HAL3     0.900000E-01   1.00800           0
      5499 MEMB     45       PMPE     N        NH3L    -0.300000       14.0070           0
      5500 MEMB     45       PMPE     HN1      HCL      0.330000       1.00800           0
      5501 MEMB     45       PMPE     HN2      HCL      0.330000       1.00800           0
      5502 MEMB     45       PMPE     HN3      HCL      0.330000       1.00800           0
      5503 MEMB     45       PMPE     C12      CTL2     0.130000       12.0110           0
      5504 MEMB     45       PMPE     H12A     HAL2     0.900000E-01   1.00800           0
      5505 MEMB     45       PMPE     H12B     HAL2     0.900000E-01   1.00800           0
      5506 MEMB     45       PMPE     C11      CTL2    -0.800000E-01   12.0110           0
      5507 MEMB     45       PMPE     H11A     HAL2     0.900000E-01   1.00800           0
      5508 MEMB     45       PMPE     H11B     HAL2     0.900000E-01   1.00800           0
      5509 MEMB     45       PMPE     P        PL        1.50000       30.9740           0
      5510 MEMB     45       PMPE     O13      O2L     -0.780000       15.9994           0
      5511 MEMB     45       PMPE     O14      O2L     -0.780000       15.9994           0
      5512 MEMB     45       PMPE     O11      OSLP    -0.570000       15.9994           0
      5513 MEMB     45       PMPE     O12      OSLP    -0.570000       15.9994           0
      5514 MEMB     45       PMPE     C1       CTL2    -0.800000E-01   12.0110           0
      5515 MEMB     45       PMPE     HA       HAL2     0.900000E-01   1.00800           0
      5516 MEMB     45       PMPE     HB       HAL2     0.900000E-01   1.00800           0
      5517 MEMB     45       PMPE     C2       CTL1     0.170000       12.0110           0
      5518 MEMB     45       PMPE     HS       HAL1     0.900000E-01   1.00800           0
      5519 MEMB     45       PMPE     O21      OSL     -0.490000       15.9994           0
      5520 MEMB     45       PMPE     C21      CL       0.900000       12.0110           0
      5521 MEMB     45       PMPE     O22      OBL     -0.630000       15.9994           0
      5522 MEMB     45       PMPE     C22      CTL2    -0.220000       12.0110           0
      5523 MEMB     45       PMPE     H2R      HAL2     0.900000E-01   1.00800           0
      5524 MEMB     45       PMPE     H2S      HAL2     0.900000E-01   1.00800           0
      5525 MEMB     45       PMPE     C3       CTL2     0.800000E-01   12.0110           0
      5526 MEMB     45       PMPE     HX       HAL2     0.900000E-01   1.00800           0
      5527 MEMB     45       PMPE     HY       HAL2     0.900000E-01   1.00800           0
      5528 MEMB     45       PMPE     O31      OSL     -0.490000       15.9994           0
      5529 MEMB     45       PMPE     C31      CL       0.900000       12.0110           0
      5530 MEMB     45       PMPE     O32      OBL     -0.630000       15.9994           0
      5531 MEMB     45       PMPE     C32      CTL2    -0.220000       12.0110           0
      5532 MEMB     45       PMPE     H2X      HAL2     0.900000E-01   1.00800           0
      5533 MEMB     45       PMPE     H2Y      HAL2     0.900000E-01   1.00800           0
      5534 MEMB     45       PMPE     C23      CTL2    -0.180000       12.0110           0
      5535 MEMB     45       PMPE     H3R      HAL2     0.900000E-01   1.00800           0
      5536 MEMB     45       PMPE     H3S      HAL2     0.900000E-01   1.00800           0
      5537 MEMB     45       PMPE     C24      CTL2    -0.180000       12.0110           0
      5538 MEMB     45       PMPE     H4R      HAL2     0.900000E-01   1.00800           0
      5539 MEMB     45       PMPE     H4S      HAL2     0.900000E-01   1.00800           0
      5540 MEMB     45       PMPE     C25      CTL2    -0.180000       12.0110           0
      5541 MEMB     45       PMPE     H5R      HAL2     0.900000E-01   1.00800           0
      5542 MEMB     45       PMPE     H5S      HAL2     0.900000E-01   1.00800           0
      5543 MEMB     45       PMPE     C26      CTL2    -0.180000       12.0110           0
      5544 MEMB     45       PMPE     H6R      HAL2     0.900000E-01   1.00800           0
      5545 MEMB     45       PMPE     H6S      HAL2     0.900000E-01   1.00800           0
      5546 MEMB     45       PMPE     C27      CTL2    -0.180000       12.0110           0
      5547 MEMB     45       PMPE     H7R      HAL2     0.900000E-01   1.00800           0
      5548 MEMB     45       PMPE     H7S      HAL2     0.900000E-01   1.00800           0
      5549 MEMB     45       PMPE     C28      CTL2    -0.180000       12.0110           0
      5550 MEMB     45       PMPE     H8R      HAL2     0.900000E-01   1.00800           0
      5551 MEMB     45       PMPE     H8S      HAL2     0.900000E-01   1.00800           0
      5552 MEMB     45       PMPE     C29      CG3RC1  -0.900000E-01   12.0110           0
      5553 MEMB     45       PMPE     H9R      HGA1     0.900000E-01   1.00800           0
      5554 MEMB     45       PMPE     C217     CG3C31  -0.180000       12.0110           0
      5555 MEMB     45       PMPE     H17R     HGA2     0.900000E-01   1.00800           0
      5556 MEMB     45       PMPE     H17S     HGA2     0.900000E-01   1.00800           0
      5557 MEMB     45       PMPE     C210     CG3RC1  -0.900000E-01   12.0110           0
      5558 MEMB     45       PMPE     H10R     HGA1     0.900000E-01   1.00800           0
      5559 MEMB     45       PMPE     C211     CTL2    -0.180000       12.0110           0
      5560 MEMB     45       PMPE     H11R     HAL2     0.900000E-01   1.00800           0
      5561 MEMB     45       PMPE     H11S     HAL2     0.900000E-01   1.00800           0
      5562 MEMB     45       PMPE     C212     CTL2    -0.180000       12.0110           0
      5563 MEMB     45       PMPE     H12R     HAL2     0.900000E-01   1.00800           0
      5564 MEMB     45       PMPE     H12S     HAL2     0.900000E-01   1.00800           0
      5565 MEMB     45       PMPE     C213     CTL2    -0.180000       12.0110           0
      5566 MEMB     45       PMPE     H13R     HAL2     0.900000E-01   1.00800           0
      5567 MEMB     45       PMPE     H13S     HAL2     0.900000E-01   1.00800           0
      5568 MEMB     45       PMPE     C214     CTL2    -0.180000       12.0110           0
      5569 MEMB     45       PMPE     H14R     HAL2     0.900000E-01   1.00800           0
      5570 MEMB     45       PMPE     H14S     HAL2     0.900000E-01   1.00800           0
      5571 MEMB     45       PMPE     C215     CTL2    -0.180000       12.0110           0
      5572 MEMB     45       PMPE     H15R     HAL2     0.900000E-01   1.00800           0
      5573 MEMB     45       PMPE     H15S     HAL2     0.900000E-01   1.00800           0
      5574 MEMB     45       PMPE     C216     CTL3    -0.270000       12.0110           0
      5575 MEMB     45       PMPE     H16R     HAL3     0.900000E-01   1.00800           0
      5576 MEMB     45       PMPE     H16S     HAL3     0.900000E-01   1.00800           0
      5577 MEMB     45       PMPE     H16T     HAL3     0.900000E-01   1.00800           0
      5578 MEMB     45       PMPE     C33      CTL2    -0.180000       12.0110           0
      5579 MEMB     45       PMPE     H3X      HAL2     0.900000E-01   1.00800           0
      5580 MEMB     45       PMPE     H3Y      HAL2     0.900000E-01   1.00800           0
      5581 MEMB     45       PMPE     C34      CTL2    -0.180000       12.0110           0
      5582 MEMB     45       PMPE     H4X      HAL2     0.900000E-01   1.00800           0
      5583 MEMB     45       PMPE     H4Y      HAL2     0.900000E-01   1.00800           0
      5584 MEMB     45       PMPE     C35      CTL2    -0.180000       12.0110           0
      5585 MEMB     45       PMPE     H5X      HAL2     0.900000E-01   1.00800           0
      5586 MEMB     45       PMPE     H5Y      HAL2     0.900000E-01   1.00800           0
      5587 MEMB     45       PMPE     C36      CTL2    -0.180000       12.0110           0
      5588 MEMB     45       PMPE     H6X      HAL2     0.900000E-01   1.00800           0
      5589 MEMB     45       PMPE     H6Y      HAL2     0.900000E-01   1.00800           0
      5590 MEMB     45       PMPE     C37      CTL2    -0.180000       12.0110           0
      5591 MEMB     45       PMPE     H7X      HAL2     0.900000E-01   1.00800           0
      5592 MEMB     45       PMPE     H7Y      HAL2     0.900000E-01   1.00800           0
      5593 MEMB     45       PMPE     C38      CTL2    -0.180000       12.0110           0
      5594 MEMB     45       PMPE     H8X      HAL2     0.900000E-01   1.00800           0
      5595 MEMB     45       PMPE     H8Y      HAL2     0.900000E-01   1.00800           0
      5596 MEMB     45       PMPE     C39      CTL2    -0.180000       12.0110           0
      5597 MEMB     45       PMPE     H9X      HAL2     0.900000E-01   1.00800           0
      5598 MEMB     45       PMPE     H9Y      HAL2     0.900000E-01   1.00800           0
      5599 MEMB     45       PMPE     C310     CTL2    -0.180000       12.0110           0
      5600 MEMB     45       PMPE     H10X     HAL2     0.900000E-01   1.00800           0
      5601 MEMB     45       PMPE     H10Y     HAL2     0.900000E-01   1.00800           0
      5602 MEMB     45       PMPE     C311     CTL2    -0.180000       12.0110           0
      5603 MEMB     45       PMPE     H11X     HAL2     0.900000E-01   1.00800           0
      5604 MEMB     45       PMPE     H11Y     HAL2     0.900000E-01   1.00800           0
      5605 MEMB     45       PMPE     C312     CTL2    -0.180000       12.0110           0
      5606 MEMB     45       PMPE     H12X     HAL2     0.900000E-01   1.00800           0
      5607 MEMB     45       PMPE     H12Y     HAL2     0.900000E-01   1.00800           0
      5608 MEMB     45       PMPE     C313     CTL2    -0.180000       12.0110           0
      5609 MEMB     45       PMPE     H13X     HAL2     0.900000E-01   1.00800           0
      5610 MEMB     45       PMPE     H13Y     HAL2     0.900000E-01   1.00800           0
      5611 MEMB     45       PMPE     C314     CTL2    -0.180000       12.0110           0
      5612 MEMB     45       PMPE     H14X     HAL2     0.900000E-01   1.00800           0
      5613 MEMB     45       PMPE     H14Y     HAL2     0.900000E-01   1.00800           0
      5614 MEMB     45       PMPE     C315     CTL2    -0.180000       12.0110           0
      5615 MEMB     45       PMPE     H15X     HAL2     0.900000E-01   1.00800           0
      5616 MEMB     45       PMPE     H15Y     HAL2     0.900000E-01   1.00800           0
      5617 MEMB     45       PMPE     C316     CTL3    -0.270000       12.0110           0
      5618 MEMB     45       PMPE     H16X     HAL3     0.900000E-01   1.00800           0
      5619 MEMB     45       PMPE     H16Y     HAL3     0.900000E-01   1.00800           0
      5620 MEMB     45       PMPE     H16Z     HAL3     0.900000E-01   1.00800           0
      5621 MEMB     46       POPE     N        NH3L    -0.300000       14.0070           0
      5622 MEMB     46       POPE     HN1      HCL      0.330000       1.00800           0
      5623 MEMB     46       POPE     HN2      HCL      0.330000       1.00800           0
      5624 MEMB     46       POPE     HN3      HCL      0.330000       1.00800           0
      5625 MEMB     46       POPE     C12      CTL2     0.130000       12.0110           0
      5626 MEMB     46       POPE     H12A     HAL2     0.900000E-01   1.00800           0
      5627 MEMB     46       POPE     H12B     HAL2     0.900000E-01   1.00800           0
      5628 MEMB     46       POPE     C11      CTL2    -0.800000E-01   12.0110           0
      5629 MEMB     46       POPE     H11A     HAL2     0.900000E-01   1.00800           0
      5630 MEMB     46       POPE     H11B     HAL2     0.900000E-01   1.00800           0
      5631 MEMB     46       POPE     P        PL        1.50000       30.9740           0
      5632 MEMB     46       POPE     O13      O2L     -0.780000       15.9994           0
      5633 MEMB     46       POPE     O14      O2L     -0.780000       15.9994           0
      5634 MEMB     46       POPE     O11      OSLP    -0.570000       15.9994           0
      5635 MEMB     46       POPE     O12      OSLP    -0.570000       15.9994           0
      5636 MEMB     46       POPE     C1       CTL2    -0.800000E-01   12.0110           0
      5637 MEMB     46       POPE     HA       HAL2     0.900000E-01   1.00800           0
      5638 MEMB     46       POPE     HB       HAL2     0.900000E-01   1.00800           0
      5639 MEMB     46       POPE     C2       CTL1     0.170000       12.0110           0
      5640 MEMB     46       POPE     HS       HAL1     0.900000E-01   1.00800           0
      5641 MEMB     46       POPE     O21      OSL     -0.490000       15.9994           0
      5642 MEMB     46       POPE     C21      CL       0.900000       12.0110           0
      5643 MEMB     46       POPE     O22      OBL     -0.630000       15.9994           0
      5644 MEMB     46       POPE     C22      CTL2    -0.220000       12.0110           0
      5645 MEMB     46       POPE     H2R      HAL2     0.900000E-01   1.00800           0
      5646 MEMB     46       POPE     H2S      HAL2     0.900000E-01   1.00800           0
      5647 MEMB     46       POPE     C3       CTL2     0.800000E-01   12.0110           0
      5648 MEMB     46       POPE     HX       HAL2     0.900000E-01   1.00800           0
      5649 MEMB     46       POPE     HY       HAL2     0.900000E-01   1.00800           0
      5650 MEMB     46       POPE     O31      OSL     -0.490000       15.9994           0
      5651 MEMB     46       POPE     C31      CL       0.900000       12.0110           0
      5652 MEMB     46       POPE     O32      OBL     -0.630000       15.9994           0
      5653 MEMB     46       POPE     C32      CTL2    -0.220000       12.0110           0
      5654 MEMB     46       POPE     H2X      HAL2     0.900000E-01   1.00800           0
      5655 MEMB     46       POPE     H2Y      HAL2     0.900000E-01   1.00800           0
      5656 MEMB     46       POPE     C23      CTL2    -0.180000       12.0110           0
      5657 MEMB     46       POPE     H3R      HAL2     0.900000E-01   1.00800           0
      5658 MEMB     46       POPE     H3S      HAL2     0.900000E-01   1.00800           0
      5659 MEMB     46       POPE     C24      CTL2    -0.180000       12.0110           0
      5660 MEMB     46       POPE     H4R      HAL2     0.900000E-01   1.00800           0
      5661 MEMB     46       POPE     H4S      HAL2     0.900000E-01   1.00800           0
      5662 MEMB     46       POPE     C25      CTL2    -0.180000       12.0110           0
      5663 MEMB     46       POPE     H5R      HAL2     0.900000E-01   1.00800           0
      5664 MEMB     46       POPE     H5S      HAL2     0.900000E-01   1.00800           0
      5665 MEMB     46       POPE     C26      CTL2    -0.180000       12.0110           0
      5666 MEMB     46       POPE     H6R      HAL2     0.900000E-01   1.00800           0
      5667 MEMB     46       POPE     H6S      HAL2     0.900000E-01   1.00800           0
      5668 MEMB     46       POPE     C27      CTL2    -0.180000       12.0110           0
      5669 MEMB     46       POPE     H7R      HAL2     0.900000E-01   1.00800           0
      5670 MEMB     46       POPE     H7S      HAL2     0.900000E-01   1.00800           0
      5671 MEMB     46       POPE     C28      CTL2    -0.180000       12.0110           0
      5672 MEMB     46       POPE     H8R      HAL2     0.900000E-01   1.00800           0
      5673 MEMB     46       POPE     H8S      HAL2     0.900000E-01   1.00800           0
      5674 MEMB     46       POPE     C29      CEL1    -0.150000       12.0110           0
      5675 MEMB     46       POPE     H91      HEL1     0.150000       1.00800           0
      5676 MEMB     46       POPE     C210     CEL1    -0.150000       12.0110           0
      5677 MEMB     46       POPE     H101     HEL1     0.150000       1.00800           0
      5678 MEMB     46       POPE     C211     CTL2    -0.180000       12.0110           0
      5679 MEMB     46       POPE     H11R     HAL2     0.900000E-01   1.00800           0
      5680 MEMB     46       POPE     H11S     HAL2     0.900000E-01   1.00800           0
      5681 MEMB     46       POPE     C212     CTL2    -0.180000       12.0110           0
      5682 MEMB     46       POPE     H12R     HAL2     0.900000E-01   1.00800           0
      5683 MEMB     46       POPE     H12S     HAL2     0.900000E-01   1.00800           0
      5684 MEMB     46       POPE     C213     CTL2    -0.180000       12.0110           0
      5685 MEMB     46       POPE     H13R     HAL2     0.900000E-01   1.00800           0
      5686 MEMB     46       POPE     H13S     HAL2     0.900000E-01   1.00800           0
      5687 MEMB     46       POPE     C214     CTL2    -0.180000       12.0110           0
      5688 MEMB     46       POPE     H14R     HAL2     0.900000E-01   1.00800           0
      5689 MEMB     46       POPE     H14S     HAL2     0.900000E-01   1.00800           0
      5690 MEMB     46       POPE     C215     CTL2    -0.180000       12.0110           0
      5691 MEMB     46       POPE     H15R     HAL2     0.900000E-01   1.00800           0
      5692 MEMB     46       POPE     H15S     HAL2     0.900000E-01   1.00800           0
      5693 MEMB     46       POPE     C216     CTL2    -0.180000       12.0110           0
      5694 MEMB     46       POPE     H16R     HAL2     0.900000E-01   1.00800           0
      5695 MEMB     46       POPE     H16S     HAL2     0.900000E-01   1.00800           0
      5696 MEMB     46       POPE     C217     CTL2    -0.180000       12.0110           0
      5697 MEMB     46       POPE     H17R     HAL2     0.900000E-01   1.00800           0
      5698 MEMB     46       POPE     H17S     HAL2     0.900000E-01   1.00800           0
      5699 MEMB     46       POPE     C218     CTL3    -0.270000       12.0110           0
      5700 MEMB     46       POPE     H18R     HAL3     0.900000E-01   1.00800           0
      5701 MEMB     46       POPE     H18S     HAL3     0.900000E-01   1.00800           0
      5702 MEMB     46       POPE     H18T     HAL3     0.900000E-01   1.00800           0
      5703 MEMB     46       POPE     C33      CTL2    -0.180000       12.0110           0
      5704 MEMB     46       POPE     H3X      HAL2     0.900000E-01   1.00800           0
      5705 MEMB     46       POPE     H3Y      HAL2     0.900000E-01   1.00800           0
      5706 MEMB     46       POPE     C34      CTL2    -0.180000       12.0110           0
      5707 MEMB     46       POPE     H4X      HAL2     0.900000E-01   1.00800           0
      5708 MEMB     46       POPE     H4Y      HAL2     0.900000E-01   1.00800           0
      5709 MEMB     46       POPE     C35      CTL2    -0.180000       12.0110           0
      5710 MEMB     46       POPE     H5X      HAL2     0.900000E-01   1.00800           0
      5711 MEMB     46       POPE     H5Y      HAL2     0.900000E-01   1.00800           0
      5712 MEMB     46       POPE     C36      CTL2    -0.180000       12.0110           0
      5713 MEMB     46       POPE     H6X      HAL2     0.900000E-01   1.00800           0
      5714 MEMB     46       POPE     H6Y      HAL2     0.900000E-01   1.00800           0
      5715 MEMB     46       POPE     C37      CTL2    -0.180000       12.0110           0
      5716 MEMB     46       POPE     H7X      HAL2     0.900000E-01   1.00800           0
      5717 MEMB     46       POPE     H7Y      HAL2     0.900000E-01   1.00800           0
      5718 MEMB     46       POPE     C38      CTL2    -0.180000       12.0110           0
      5719 MEMB     46       POPE     H8X      HAL2     0.900000E-01   1.00800           0
      5720 MEMB     46       POPE     H8Y      HAL2     0.900000E-01   1.00800           0
      5721 MEMB     46       POPE     C39      CTL2    -0.180000       12.0110           0
      5722 MEMB     46       POPE     H9X      HAL2     0.900000E-01   1.00800           0
      5723 MEMB     46       POPE     H9Y      HAL2     0.900000E-01   1.00800           0
      5724 MEMB     46       POPE     C310     CTL2    -0.180000       12.0110           0
      5725 MEMB     46       POPE     H10X     HAL2     0.900000E-01   1.00800           0
      5726 MEMB     46       POPE     H10Y     HAL2     0.900000E-01   1.00800           0
      5727 MEMB     46       POPE     C311     CTL2    -0.180000       12.0110           0
      5728 MEMB     46       POPE     H11X     HAL2     0.900000E-01   1.00800           0
      5729 MEMB     46       POPE     H11Y     HAL2     0.900000E-01   1.00800           0
      5730 MEMB     46       POPE     C312     CTL2    -0.180000       12.0110           0
      5731 MEMB     46       POPE     H12X     HAL2     0.900000E-01   1.00800           0
      5732 MEMB     46       POPE     H12Y     HAL2     0.900000E-01   1.00800           0
      5733 MEMB     46       POPE     C313     CTL2    -0.180000       12.0110           0
      5734 MEMB     46       POPE     H13X     HAL2     0.900000E-01   1.00800           0
      5735 MEMB     46       POPE     H13Y     HAL2     0.900000E-01   1.00800           0
      5736 MEMB     46       POPE     C314     CTL2    -0.180000       12.0110           0
      5737 MEMB     46       POPE     H14X     HAL2     0.900000E-01   1.00800           0
      5738 MEMB     46       POPE     H14Y     HAL2     0.900000E-01   1.00800           0
      5739 MEMB     46       POPE     C315     CTL2    -0.180000       12.0110           0
      5740 MEMB     46       POPE     H15X     HAL2     0.900000E-01   1.00800           0
      5741 MEMB     46       POPE     H15Y     HAL2     0.900000E-01   1.00800           0
      5742 MEMB     46       POPE     C316     CTL3    -0.270000       12.0110           0
      5743 MEMB     46       POPE     H16X     HAL3     0.900000E-01   1.00800           0
      5744 MEMB     46       POPE     H16Y     HAL3     0.900000E-01   1.00800           0
      5745 MEMB     46       POPE     H16Z     HAL3     0.900000E-01   1.00800           0
      5746 MEMB     47       QMPE     N        NH3L    -0.300000       14.0070           0
      5747 MEMB     47       QMPE     HN1      HCL      0.330000       1.00800           0
      5748 MEMB     47       QMPE     HN2      HCL      0.330000       1.00800           0
      5749 MEMB     47       QMPE     HN3      HCL      0.330000       1.00800           0
      5750 MEMB     47       QMPE     C12      CTL2     0.130000       12.0110           0
      5751 MEMB     47       QMPE     H12A     HAL2     0.900000E-01   1.00800           0
      5752 MEMB     47       QMPE     H12B     HAL2     0.900000E-01   1.00800           0
      5753 MEMB     47       QMPE     C11      CTL2    -0.800000E-01   12.0110           0
      5754 MEMB     47       QMPE     H11A     HAL2     0.900000E-01   1.00800           0
      5755 MEMB     47       QMPE     H11B     HAL2     0.900000E-01   1.00800           0
      5756 MEMB     47       QMPE     P        PL        1.50000       30.9740           0
      5757 MEMB     47       QMPE     O13      O2L     -0.780000       15.9994           0
      5758 MEMB     47       QMPE     O14      O2L     -0.780000       15.9994           0
      5759 MEMB     47       QMPE     O11      OSLP    -0.570000       15.9994           0
      5760 MEMB     47       QMPE     O12      OSLP    -0.570000       15.9994           0
      5761 MEMB     47       QMPE     C1       CTL2    -0.800000E-01   12.0110           0
      5762 MEMB     47       QMPE     HA       HAL2     0.900000E-01   1.00800           0
      5763 MEMB     47       QMPE     HB       HAL2     0.900000E-01   1.00800           0
      5764 MEMB     47       QMPE     C2       CTL1     0.170000       12.0110           0
      5765 MEMB     47       QMPE     HS       HAL1     0.900000E-01   1.00800           0
      5766 MEMB     47       QMPE     O21      OSL     -0.490000       15.9994           0
      5767 MEMB     47       QMPE     C21      CL       0.900000       12.0110           0
      5768 MEMB     47       QMPE     O22      OBL     -0.630000       15.9994           0
      5769 MEMB     47       QMPE     C22      CTL2    -0.220000       12.0110           0
      5770 MEMB     47       QMPE     H2R      HAL2     0.900000E-01   1.00800           0
      5771 MEMB     47       QMPE     H2S      HAL2     0.900000E-01   1.00800           0
      5772 MEMB     47       QMPE     C3       CTL2     0.800000E-01   12.0110           0
      5773 MEMB     47       QMPE     HX       HAL2     0.900000E-01   1.00800           0
      5774 MEMB     47       QMPE     HY       HAL2     0.900000E-01   1.00800           0
      5775 MEMB     47       QMPE     O31      OSL     -0.490000       15.9994           0
      5776 MEMB     47       QMPE     C31      CL       0.900000       12.0110           0
      5777 MEMB     47       QMPE     O32      OBL     -0.630000       15.9994           0
      5778 MEMB     47       QMPE     C32      CTL2    -0.220000       12.0110           0
      5779 MEMB     47       QMPE     H2X      HAL2     0.900000E-01   1.00800           0
      5780 MEMB     47       QMPE     H2Y      HAL2     0.900000E-01   1.00800           0
      5781 MEMB     47       QMPE     C23      CTL2    -0.180000       12.0110           0
      5782 MEMB     47       QMPE     H3R      HAL2     0.900000E-01   1.00800           0
      5783 MEMB     47       QMPE     H3S      HAL2     0.900000E-01   1.00800           0
      5784 MEMB     47       QMPE     C24      CTL2    -0.180000       12.0110           0
      5785 MEMB     47       QMPE     H4R      HAL2     0.900000E-01   1.00800           0
      5786 MEMB     47       QMPE     H4S      HAL2     0.900000E-01   1.00800           0
      5787 MEMB     47       QMPE     C25      CTL2    -0.180000       12.0110           0
      5788 MEMB     47       QMPE     H5R      HAL2     0.900000E-01   1.00800           0
      5789 MEMB     47       QMPE     H5S      HAL2     0.900000E-01   1.00800           0
      5790 MEMB     47       QMPE     C26      CTL2    -0.180000       12.0110           0
      5791 MEMB     47       QMPE     H6R      HAL2     0.900000E-01   1.00800           0
      5792 MEMB     47       QMPE     H6S      HAL2     0.900000E-01   1.00800           0
      5793 MEMB     47       QMPE     C27      CTL2    -0.180000       12.0110           0
      5794 MEMB     47       QMPE     H7R      HAL2     0.900000E-01   1.00800           0
      5795 MEMB     47       QMPE     H7S      HAL2     0.900000E-01   1.00800           0
      5796 MEMB     47       QMPE     C28      CTL2    -0.180000       12.0110           0
      5797 MEMB     47       QMPE     H8R      HAL2     0.900000E-01   1.00800           0
      5798 MEMB     47       QMPE     H8S      HAL2     0.900000E-01   1.00800           0
      5799 MEMB     47       QMPE     C29      CG3RC1  -0.900000E-01   12.0110           0
      5800 MEMB     47       QMPE     H9R      HGA1     0.900000E-01   1.00800           0
      5801 MEMB     47       QMPE     C217     CG3C31  -0.180000       12.0110           0
      5802 MEMB     47       QMPE     H17R     HGA2     0.900000E-01   1.00800           0
      5803 MEMB     47       QMPE     H17S     HGA2     0.900000E-01   1.00800           0
      5804 MEMB     47       QMPE     C210     CG3RC1  -0.900000E-01   12.0110           0
      5805 MEMB     47       QMPE     H10R     HGA1     0.900000E-01   1.00800           0
      5806 MEMB     47       QMPE     C211     CTL2    -0.180000       12.0110           0
      5807 MEMB     47       QMPE     H11R     HAL2     0.900000E-01   1.00800           0
      5808 MEMB     47       QMPE     H11S     HAL2     0.900000E-01   1.00800           0
      5809 MEMB     47       QMPE     C212     CTL2    -0.180000       12.0110           0
      5810 MEMB     47       QMPE     H12R     HAL2     0.900000E-01   1.00800           0
      5811 MEMB     47       QMPE     H12S     HAL2     0.900000E-01   1.00800           0
      5812 MEMB     47       QMPE     C213     CTL2    -0.180000       12.0110           0
      5813 MEMB     47       QMPE     H13R     HAL2     0.900000E-01   1.00800           0
      5814 MEMB     47       QMPE     H13S     HAL2     0.900000E-01   1.00800           0
      5815 MEMB     47       QMPE     C214     CTL2    -0.180000       12.0110           0
      5816 MEMB     47       QMPE     H14R     HAL2     0.900000E-01   1.00800           0
      5817 MEMB     47       QMPE     H14S     HAL2     0.900000E-01   1.00800           0
      5818 MEMB     47       QMPE     C215     CTL2    -0.180000       12.0110           0
      5819 MEMB     47       QMPE     H15R     HAL2     0.900000E-01   1.00800           0
      5820 MEMB     47       QMPE     H15S     HAL2     0.900000E-01   1.00800           0
      5821 MEMB     47       QMPE     C216     CTL3    -0.270000       12.0110           0
      5822 MEMB     47       QMPE     H16R     HAL3     0.900000E-01   1.00800           0
      5823 MEMB     47       QMPE     H16S     HAL3     0.900000E-01   1.00800           0
      5824 MEMB     47       QMPE     H16T     HAL3     0.900000E-01   1.00800           0
      5825 MEMB     47       QMPE     C33      CTL2    -0.180000       12.0110           0
      5826 MEMB     47       QMPE     H3X      HAL2     0.900000E-01   1.00800           0
      5827 MEMB     47       QMPE     H3Y      HAL2     0.900000E-01   1.00800           0
      5828 MEMB     47       QMPE     C34      CTL2    -0.180000       12.0110           0
      5829 MEMB     47       QMPE     H4X      HAL2     0.900000E-01   1.00800           0
      5830 MEMB     47       QMPE     H4Y      HAL2     0.900000E-01   1.00800           0
      5831 MEMB     47       QMPE     C35      CTL2    -0.180000       12.0110           0
      5832 MEMB     47       QMPE     H5X      HAL2     0.900000E-01   1.00800           0
      5833 MEMB     47       QMPE     H5Y      HAL2     0.900000E-01   1.00800           0
      5834 MEMB     47       QMPE     C36      CTL2    -0.180000       12.0110           0
      5835 MEMB     47       QMPE     H6X      HAL2     0.900000E-01   1.00800           0
      5836 MEMB     47       QMPE     H6Y      HAL2     0.900000E-01   1.00800           0
      5837 MEMB     47       QMPE     C37      CTL2    -0.180000       12.0110           0
      5838 MEMB     47       QMPE     H7X      HAL2     0.900000E-01   1.00800           0
      5839 MEMB     47       QMPE     H7Y      HAL2     0.900000E-01   1.00800           0
      5840 MEMB     47       QMPE     C38      CTL2    -0.180000       12.0110           0
      5841 MEMB     47       QMPE     H8X      HAL2     0.900000E-01   1.00800           0
      5842 MEMB     47       QMPE     H8Y      HAL2     0.900000E-01   1.00800           0
      5843 MEMB     47       QMPE     C39      CTL2    -0.180000       12.0110           0
      5844 MEMB     47       QMPE     H9X      HAL2     0.900000E-01   1.00800           0
      5845 MEMB     47       QMPE     H9Y      HAL2     0.900000E-01   1.00800           0
      5846 MEMB     47       QMPE     C310     CTL2    -0.180000       12.0110           0
      5847 MEMB     47       QMPE     H10X     HAL2     0.900000E-01   1.00800           0
      5848 MEMB     47       QMPE     H10Y     HAL2     0.900000E-01   1.00800           0
      5849 MEMB     47       QMPE     C311     CTL2    -0.180000       12.0110           0
      5850 MEMB     47       QMPE     H11X     HAL2     0.900000E-01   1.00800           0
      5851 MEMB     47       QMPE     H11Y     HAL2     0.900000E-01   1.00800           0
      5852 MEMB     47       QMPE     C312     CTL2    -0.180000       12.0110           0
      5853 MEMB     47       QMPE     H12X     HAL2     0.900000E-01   1.00800           0
      5854 MEMB     47       QMPE     H12Y     HAL2     0.900000E-01   1.00800           0
      5855 MEMB     47       QMPE     C313     CTL2    -0.180000       12.0110           0
      5856 MEMB     47       QMPE     H13X     HAL2     0.900000E-01   1.00800           0
      5857 MEMB     47       QMPE     H13Y     HAL2     0.900000E-01   1.00800           0
      5858 MEMB     47       QMPE     C314     CTL2    -0.180000       12.0110           0
      5859 MEMB     47       QMPE     H14X     HAL2     0.900000E-01   1.00800           0
      5860 MEMB     47       QMPE     H14Y     HAL2     0.900000E-01   1.00800           0
      5861 MEMB     47       QMPE     C315     CTL3    -0.270000       12.0110           0
      5862 MEMB     47       QMPE     H15X     HAL3     0.900000E-01   1.00800           0
      5863 MEMB     47       QMPE     H15Y     HAL3     0.900000E-01   1.00800           0
      5864 MEMB     47       QMPE     H15Z     HAL3     0.900000E-01   1.00800           0
      5865 MEMB     48       PMPE     N        NH3L    -0.300000       14.0070           0
      5866 MEMB     48       PMPE     HN1      HCL      0.330000       1.00800           0
      5867 MEMB     48       PMPE     HN2      HCL      0.330000       1.00800           0
      5868 MEMB     48       PMPE     HN3      HCL      0.330000       1.00800           0
      5869 MEMB     48       PMPE     C12      CTL2     0.130000       12.0110           0
      5870 MEMB     48       PMPE     H12A     HAL2     0.900000E-01   1.00800           0
      5871 MEMB     48       PMPE     H12B     HAL2     0.900000E-01   1.00800           0
      5872 MEMB     48       PMPE     C11      CTL2    -0.800000E-01   12.0110           0
      5873 MEMB     48       PMPE     H11A     HAL2     0.900000E-01   1.00800           0
      5874 MEMB     48       PMPE     H11B     HAL2     0.900000E-01   1.00800           0
      5875 MEMB     48       PMPE     P        PL        1.50000       30.9740           0
      5876 MEMB     48       PMPE     O13      O2L     -0.780000       15.9994           0
      5877 MEMB     48       PMPE     O14      O2L     -0.780000       15.9994           0
      5878 MEMB     48       PMPE     O11      OSLP    -0.570000       15.9994           0
      5879 MEMB     48       PMPE     O12      OSLP    -0.570000       15.9994           0
      5880 MEMB     48       PMPE     C1       CTL2    -0.800000E-01   12.0110           0
      5881 MEMB     48       PMPE     HA       HAL2     0.900000E-01   1.00800           0
      5882 MEMB     48       PMPE     HB       HAL2     0.900000E-01   1.00800           0
      5883 MEMB     48       PMPE     C2       CTL1     0.170000       12.0110           0
      5884 MEMB     48       PMPE     HS       HAL1     0.900000E-01   1.00800           0
      5885 MEMB     48       PMPE     O21      OSL     -0.490000       15.9994           0
      5886 MEMB     48       PMPE     C21      CL       0.900000       12.0110           0
      5887 MEMB     48       PMPE     O22      OBL     -0.630000       15.9994           0
      5888 MEMB     48       PMPE     C22      CTL2    -0.220000       12.0110           0
      5889 MEMB     48       PMPE     H2R      HAL2     0.900000E-01   1.00800           0
      5890 MEMB     48       PMPE     H2S      HAL2     0.900000E-01   1.00800           0
      5891 MEMB     48       PMPE     C3       CTL2     0.800000E-01   12.0110           0
      5892 MEMB     48       PMPE     HX       HAL2     0.900000E-01   1.00800           0
      5893 MEMB     48       PMPE     HY       HAL2     0.900000E-01   1.00800           0
      5894 MEMB     48       PMPE     O31      OSL     -0.490000       15.9994           0
      5895 MEMB     48       PMPE     C31      CL       0.900000       12.0110           0
      5896 MEMB     48       PMPE     O32      OBL     -0.630000       15.9994           0
      5897 MEMB     48       PMPE     C32      CTL2    -0.220000       12.0110           0
      5898 MEMB     48       PMPE     H2X      HAL2     0.900000E-01   1.00800           0
      5899 MEMB     48       PMPE     H2Y      HAL2     0.900000E-01   1.00800           0
      5900 MEMB     48       PMPE     C23      CTL2    -0.180000       12.0110           0
      5901 MEMB     48       PMPE     H3R      HAL2     0.900000E-01   1.00800           0
      5902 MEMB     48       PMPE     H3S      HAL2     0.900000E-01   1.00800           0
      5903 MEMB     48       PMPE     C24      CTL2    -0.180000       12.0110           0
      5904 MEMB     48       PMPE     H4R      HAL2     0.900000E-01   1.00800           0
      5905 MEMB     48       PMPE     H4S      HAL2     0.900000E-01   1.00800           0
      5906 MEMB     48       PMPE     C25      CTL2    -0.180000       12.0110           0
      5907 MEMB     48       PMPE     H5R      HAL2     0.900000E-01   1.00800           0
      5908 MEMB     48       PMPE     H5S      HAL2     0.900000E-01   1.00800           0
      5909 MEMB     48       PMPE     C26      CTL2    -0.180000       12.0110           0
      5910 MEMB     48       PMPE     H6R      HAL2     0.900000E-01   1.00800           0
      5911 MEMB     48       PMPE     H6S      HAL2     0.900000E-01   1.00800           0
      5912 MEMB     48       PMPE     C27      CTL2    -0.180000       12.0110           0
      5913 MEMB     48       PMPE     H7R      HAL2     0.900000E-01   1.00800           0
      5914 MEMB     48       PMPE     H7S      HAL2     0.900000E-01   1.00800           0
      5915 MEMB     48       PMPE     C28      CTL2    -0.180000       12.0110           0
      5916 MEMB     48       PMPE     H8R      HAL2     0.900000E-01   1.00800           0
      5917 MEMB     48       PMPE     H8S      HAL2     0.900000E-01   1.00800           0
      5918 MEMB     48       PMPE     C29      CG3RC1  -0.900000E-01   12.0110           0
      5919 MEMB     48       PMPE     H9R      HGA1     0.900000E-01   1.00800           0
      5920 MEMB     48       PMPE     C217     CG3C31  -0.180000       12.0110           0
      5921 MEMB     48       PMPE     H17R     HGA2     0.900000E-01   1.00800           0
      5922 MEMB     48       PMPE     H17S     HGA2     0.900000E-01   1.00800           0
      5923 MEMB     48       PMPE     C210     CG3RC1  -0.900000E-01   12.0110           0
      5924 MEMB     48       PMPE     H10R     HGA1     0.900000E-01   1.00800           0
      5925 MEMB     48       PMPE     C211     CTL2    -0.180000       12.0110           0
      5926 MEMB     48       PMPE     H11R     HAL2     0.900000E-01   1.00800           0
      5927 MEMB     48       PMPE     H11S     HAL2     0.900000E-01   1.00800           0
      5928 MEMB     48       PMPE     C212     CTL2    -0.180000       12.0110           0
      5929 MEMB     48       PMPE     H12R     HAL2     0.900000E-01   1.00800           0
      5930 MEMB     48       PMPE     H12S     HAL2     0.900000E-01   1.00800           0
      5931 MEMB     48       PMPE     C213     CTL2    -0.180000       12.0110           0
      5932 MEMB     48       PMPE     H13R     HAL2     0.900000E-01   1.00800           0
      5933 MEMB     48       PMPE     H13S     HAL2     0.900000E-01   1.00800           0
      5934 MEMB     48       PMPE     C214     CTL2    -0.180000       12.0110           0
      5935 MEMB     48       PMPE     H14R     HAL2     0.900000E-01   1.00800           0
      5936 MEMB     48       PMPE     H14S     HAL2     0.900000E-01   1.00800           0
      5937 MEMB     48       PMPE     C215     CTL2    -0.180000       12.0110           0
      5938 MEMB     48       PMPE     H15R     HAL2     0.900000E-01   1.00800           0
      5939 MEMB     48       PMPE     H15S     HAL2     0.900000E-01   1.00800           0
      5940 MEMB     48       PMPE     C216     CTL3    -0.270000       12.0110           0
      5941 MEMB     48       PMPE     H16R     HAL3     0.900000E-01   1.00800           0
      5942 MEMB     48       PMPE     H16S     HAL3     0.900000E-01   1.00800           0
      5943 MEMB     48       PMPE     H16T     HAL3     0.900000E-01   1.00800           0
      5944 MEMB     48       PMPE     C33      CTL2    -0.180000       12.0110           0
      5945 MEMB     48       PMPE     H3X      HAL2     0.900000E-01   1.00800           0
      5946 MEMB     48       PMPE     H3Y      HAL2     0.900000E-01   1.00800           0
      5947 MEMB     48       PMPE     C34      CTL2    -0.180000       12.0110           0
      5948 MEMB     48       PMPE     H4X      HAL2     0.900000E-01   1.00800           0
      5949 MEMB     48       PMPE     H4Y      HAL2     0.900000E-01   1.00800           0
      5950 MEMB     48       PMPE     C35      CTL2    -0.180000       12.0110           0
      5951 MEMB     48       PMPE     H5X      HAL2     0.900000E-01   1.00800           0
      5952 MEMB     48       PMPE     H5Y      HAL2     0.900000E-01   1.00800           0
      5953 MEMB     48       PMPE     C36      CTL2    -0.180000       12.0110           0
      5954 MEMB     48       PMPE     H6X      HAL2     0.900000E-01   1.00800           0
      5955 MEMB     48       PMPE     H6Y      HAL2     0.900000E-01   1.00800           0
      5956 MEMB     48       PMPE     C37      CTL2    -0.180000       12.0110           0
      5957 MEMB     48       PMPE     H7X      HAL2     0.900000E-01   1.00800           0
      5958 MEMB     48       PMPE     H7Y      HAL2     0.900000E-01   1.00800           0
      5959 MEMB     48       PMPE     C38      CTL2    -0.180000       12.0110           0
      5960 MEMB     48       PMPE     H8X      HAL2     0.900000E-01   1.00800           0
      5961 MEMB     48       PMPE     H8Y      HAL2     0.900000E-01   1.00800           0
      5962 MEMB     48       PMPE     C39      CTL2    -0.180000       12.0110           0
      5963 MEMB     48       PMPE     H9X      HAL2     0.900000E-01   1.00800           0
      5964 MEMB     48       PMPE     H9Y      HAL2     0.900000E-01   1.00800           0
      5965 MEMB     48       PMPE     C310     CTL2    -0.180000       12.0110           0
      5966 MEMB     48       PMPE     H10X     HAL2     0.900000E-01   1.00800           0
      5967 MEMB     48       PMPE     H10Y     HAL2     0.900000E-01   1.00800           0
      5968 MEMB     48       PMPE     C311     CTL2    -0.180000       12.0110           0
      5969 MEMB     48       PMPE     H11X     HAL2     0.900000E-01   1.00800           0
      5970 MEMB     48       PMPE     H11Y     HAL2     0.900000E-01   1.00800           0
      5971 MEMB     48       PMPE     C312     CTL2    -0.180000       12.0110           0
      5972 MEMB     48       PMPE     H12X     HAL2     0.900000E-01   1.00800           0
      5973 MEMB     48       PMPE     H12Y     HAL2     0.900000E-01   1.00800           0
      5974 MEMB     48       PMPE     C313     CTL2    -0.180000       12.0110           0
      5975 MEMB     48       PMPE     H13X     HAL2     0.900000E-01   1.00800           0
      5976 MEMB     48       PMPE     H13Y     HAL2     0.900000E-01   1.00800           0
      5977 MEMB     48       PMPE     C314     CTL2    -0.180000       12.0110           0
      5978 MEMB     48       PMPE     H14X     HAL2     0.900000E-01   1.00800           0
      5979 MEMB     48       PMPE     H14Y     HAL2     0.900000E-01   1.00800           0
      5980 MEMB     48       PMPE     C315     CTL2    -0.180000       12.0110           0
      5981 MEMB     48       PMPE     H15X     HAL2     0.900000E-01   1.00800           0
      5982 MEMB     48       PMPE     H15Y     HAL2     0.900000E-01   1.00800           0
      5983 MEMB     48       PMPE     C316     CTL3    -0.270000       12.0110           0
      5984 MEMB     48       PMPE     H16X     HAL3     0.900000E-01   1.00800           0
      5985 MEMB     48       PMPE     H16Y     HAL3     0.900000E-01   1.00800           0
      5986 MEMB     48       PMPE     H16Z     HAL3     0.900000E-01   1.00800           0
      5987 MEMB     49       PMPE     N        NH3L    -0.300000       14.0070           0
      5988 MEMB     49       PMPE     HN1      HCL      0.330000       1.00800           0
      5989 MEMB     49       PMPE     HN2      HCL      0.330000       1.00800           0
      5990 MEMB     49       PMPE     HN3      HCL      0.330000       1.00800           0
      5991 MEMB     49       PMPE     C12      CTL2     0.130000       12.0110           0
      5992 MEMB     49       PMPE     H12A     HAL2     0.900000E-01   1.00800           0
      5993 MEMB     49       PMPE     H12B     HAL2     0.900000E-01   1.00800           0
      5994 MEMB     49       PMPE     C11      CTL2    -0.800000E-01   12.0110           0
      5995 MEMB     49       PMPE     H11A     HAL2     0.900000E-01   1.00800           0
      5996 MEMB     49       PMPE     H11B     HAL2     0.900000E-01   1.00800           0
      5997 MEMB     49       PMPE     P        PL        1.50000       30.9740           0
      5998 MEMB     49       PMPE     O13      O2L     -0.780000       15.9994           0
      5999 MEMB     49       PMPE     O14      O2L     -0.780000       15.9994           0
      6000 MEMB     49       PMPE     O11      OSLP    -0.570000       15.9994           0
      6001 MEMB     49       PMPE     O12      OSLP    -0.570000       15.9994           0
      6002 MEMB     49       PMPE     C1       CTL2    -0.800000E-01   12.0110           0
      6003 MEMB     49       PMPE     HA       HAL2     0.900000E-01   1.00800           0
      6004 MEMB     49       PMPE     HB       HAL2     0.900000E-01   1.00800           0
      6005 MEMB     49       PMPE     C2       CTL1     0.170000       12.0110           0
      6006 MEMB     49       PMPE     HS       HAL1     0.900000E-01   1.00800           0
      6007 MEMB     49       PMPE     O21      OSL     -0.490000       15.9994           0
      6008 MEMB     49       PMPE     C21      CL       0.900000       12.0110           0
      6009 MEMB     49       PMPE     O22      OBL     -0.630000       15.9994           0
      6010 MEMB     49       PMPE     C22      CTL2    -0.220000       12.0110           0
      6011 MEMB     49       PMPE     H2R      HAL2     0.900000E-01   1.00800           0
      6012 MEMB     49       PMPE     H2S      HAL2     0.900000E-01   1.00800           0
      6013 MEMB     49       PMPE     C3       CTL2     0.800000E-01   12.0110           0
      6014 MEMB     49       PMPE     HX       HAL2     0.900000E-01   1.00800           0
      6015 MEMB     49       PMPE     HY       HAL2     0.900000E-01   1.00800           0
      6016 MEMB     49       PMPE     O31      OSL     -0.490000       15.9994           0
      6017 MEMB     49       PMPE     C31      CL       0.900000       12.0110           0
      6018 MEMB     49       PMPE     O32      OBL     -0.630000       15.9994           0
      6019 MEMB     49       PMPE     C32      CTL2    -0.220000       12.0110           0
      6020 MEMB     49       PMPE     H2X      HAL2     0.900000E-01   1.00800           0
      6021 MEMB     49       PMPE     H2Y      HAL2     0.900000E-01   1.00800           0
      6022 MEMB     49       PMPE     C23      CTL2    -0.180000       12.0110           0
      6023 MEMB     49       PMPE     H3R      HAL2     0.900000E-01   1.00800           0
      6024 MEMB     49       PMPE     H3S      HAL2     0.900000E-01   1.00800           0
      6025 MEMB     49       PMPE     C24      CTL2    -0.180000       12.0110           0
      6026 MEMB     49       PMPE     H4R      HAL2     0.900000E-01   1.00800           0
      6027 MEMB     49       PMPE     H4S      HAL2     0.900000E-01   1.00800           0
      6028 MEMB     49       PMPE     C25      CTL2    -0.180000       12.0110           0
      6029 MEMB     49       PMPE     H5R      HAL2     0.900000E-01   1.00800           0
      6030 MEMB     49       PMPE     H5S      HAL2     0.900000E-01   1.00800           0
      6031 MEMB     49       PMPE     C26      CTL2    -0.180000       12.0110           0
      6032 MEMB     49       PMPE     H6R      HAL2     0.900000E-01   1.00800           0
      6033 MEMB     49       PMPE     H6S      HAL2     0.900000E-01   1.00800           0
      6034 MEMB     49       PMPE     C27      CTL2    -0.180000       12.0110           0
      6035 MEMB     49       PMPE     H7R      HAL2     0.900000E-01   1.00800           0
      6036 MEMB     49       PMPE     H7S      HAL2     0.900000E-01   1.00800           0
      6037 MEMB     49       PMPE     C28      CTL2    -0.180000       12.0110           0
      6038 MEMB     49       PMPE     H8R      HAL2     0.900000E-01   1.00800           0
      6039 MEMB     49       PMPE     H8S      HAL2     0.900000E-01   1.00800           0
      6040 MEMB     49       PMPE     C29      CG3RC1  -0.900000E-01   12.0110           0
      6041 MEMB     49       PMPE     H9R      HGA1     0.900000E-01   1.00800           0
      6042 MEMB     49       PMPE     C217     CG3C31  -0.180000       12.0110           0
      6043 MEMB     49       PMPE     H17R     HGA2     0.900000E-01   1.00800           0
      6044 MEMB     49       PMPE     H17S     HGA2     0.900000E-01   1.00800           0
      6045 MEMB     49       PMPE     C210     CG3RC1  -0.900000E-01   12.0110           0
      6046 MEMB     49       PMPE     H10R     HGA1     0.900000E-01   1.00800           0
      6047 MEMB     49       PMPE     C211     CTL2    -0.180000       12.0110           0
      6048 MEMB     49       PMPE     H11R     HAL2     0.900000E-01   1.00800           0
      6049 MEMB     49       PMPE     H11S     HAL2     0.900000E-01   1.00800           0
      6050 MEMB     49       PMPE     C212     CTL2    -0.180000       12.0110           0
      6051 MEMB     49       PMPE     H12R     HAL2     0.900000E-01   1.00800           0
      6052 MEMB     49       PMPE     H12S     HAL2     0.900000E-01   1.00800           0
      6053 MEMB     49       PMPE     C213     CTL2    -0.180000       12.0110           0
      6054 MEMB     49       PMPE     H13R     HAL2     0.900000E-01   1.00800           0
      6055 MEMB     49       PMPE     H13S     HAL2     0.900000E-01   1.00800           0
      6056 MEMB     49       PMPE     C214     CTL2    -0.180000       12.0110           0
      6057 MEMB     49       PMPE     H14R     HAL2     0.900000E-01   1.00800           0
      6058 MEMB     49       PMPE     H14S     HAL2     0.900000E-01   1.00800           0
      6059 MEMB     49       PMPE     C215     CTL2    -0.180000       12.0110           0
      6060 MEMB     49       PMPE     H15R     HAL2     0.900000E-01   1.00800           0
      6061 MEMB     49       PMPE     H15S     HAL2     0.900000E-01   1.00800           0
      6062 MEMB     49       PMPE     C216     CTL3    -0.270000       12.0110           0
      6063 MEMB     49       PMPE     H16R     HAL3     0.900000E-01   1.00800           0
      6064 MEMB     49       PMPE     H16S     HAL3     0.900000E-01   1.00800           0
      6065 MEMB     49       PMPE     H16T     HAL3     0.900000E-01   1.00800           0
      6066 MEMB     49       PMPE     C33      CTL2    -0.180000       12.0110           0
      6067 MEMB     49       PMPE     H3X      HAL2     0.900000E-01   1.00800           0
      6068 MEMB     49       PMPE     H3Y      HAL2     0.900000E-01   1.00800           0
      6069 MEMB     49       PMPE     C34      CTL2    -0.180000       12.0110           0
      6070 MEMB     49       PMPE     H4X      HAL2     0.900000E-01   1.00800           0
      6071 MEMB     49       PMPE     H4Y      HAL2     0.900000E-01   1.00800           0
      6072 MEMB     49       PMPE     C35      CTL2    -0.180000       12.0110           0
      6073 MEMB     49       PMPE     H5X      HAL2     0.900000E-01   1.00800           0
      6074 MEMB     49       PMPE     H5Y      HAL2     0.900000E-01   1.00800           0
      6075 MEMB     49       PMPE     C36      CTL2    -0.180000       12.0110           0
      6076 MEMB     49       PMPE     H6X      HAL2     0.900000E-01   1.00800           0
      6077 MEMB     49       PMPE     H6Y      HAL2     0.900000E-01   1.00800           0
      6078 MEMB     49       PMPE     C37      CTL2    -0.180000       12.0110           0
      6079 MEMB     49       PMPE     H7X      HAL2     0.900000E-01   1.00800           0
      6080 MEMB     49       PMPE     H7Y      HAL2     0.900000E-01   1.00800           0
      6081 MEMB     49       PMPE     C38      CTL2    -0.180000       12.0110           0
      6082 MEMB     49       PMPE     H8X      HAL2     0.900000E-01   1.00800           0
      6083 MEMB     49       PMPE     H8Y      HAL2     0.900000E-01   1.00800           0
      6084 MEMB     49       PMPE     C39      CTL2    -0.180000       12.0110           0
      6085 MEMB     49       PMPE     H9X      HAL2     0.900000E-01   1.00800           0
      6086 MEMB     49       PMPE     H9Y      HAL2     0.900000E-01   1.00800           0
      6087 MEMB     49       PMPE     C310     CTL2    -0.180000       12.0110           0
      6088 MEMB     49       PMPE     H10X     HAL2     0.900000E-01   1.00800           0
      6089 MEMB     49       PMPE     H10Y     HAL2     0.900000E-01   1.00800           0
      6090 MEMB     49       PMPE     C311     CTL2    -0.180000       12.0110           0
      6091 MEMB     49       PMPE     H11X     HAL2     0.900000E-01   1.00800           0
      6092 MEMB     49       PMPE     H11Y     HAL2     0.900000E-01   1.00800           0
      6093 MEMB     49       PMPE     C312     CTL2    -0.180000       12.0110           0
      6094 MEMB     49       PMPE     H12X     HAL2     0.900000E-01   1.00800           0
      6095 MEMB     49       PMPE     H12Y     HAL2     0.900000E-01   1.00800           0
      6096 MEMB     49       PMPE     C313     CTL2    -0.180000       12.0110           0
      6097 MEMB     49       PMPE     H13X     HAL2     0.900000E-01   1.00800           0
      6098 MEMB     49       PMPE     H13Y     HAL2     0.900000E-01   1.00800           0
      6099 MEMB     49       PMPE     C314     CTL2    -0.180000       12.0110           0
      6100 MEMB     49       PMPE     H14X     HAL2     0.900000E-01   1.00800           0
      6101 MEMB     49       PMPE     H14Y     HAL2     0.900000E-01   1.00800           0
      6102 MEMB     49       PMPE     C315     CTL2    -0.180000       12.0110           0
      6103 MEMB     49       PMPE     H15X     HAL2     0.900000E-01   1.00800           0
      6104 MEMB     49       PMPE     H15Y     HAL2     0.900000E-01   1.00800           0
      6105 MEMB     49       PMPE     C316     CTL3    -0.270000       12.0110           0
      6106 MEMB     49       PMPE     H16X     HAL3     0.900000E-01   1.00800           0
      6107 MEMB     49       PMPE     H16Y     HAL3     0.900000E-01   1.00800           0
      6108 MEMB     49       PMPE     H16Z     HAL3     0.900000E-01   1.00800           0
      6109 MEMB     50       POPE     N        NH3L    -0.300000       14.0070           0
      6110 MEMB     50       POPE     HN1      HCL      0.330000       1.00800           0
      6111 MEMB     50       POPE     HN2      HCL      0.330000       1.00800           0
      6112 MEMB     50       POPE     HN3      HCL      0.330000       1.00800           0
      6113 MEMB     50       POPE     C12      CTL2     0.130000       12.0110           0
      6114 MEMB     50       POPE     H12A     HAL2     0.900000E-01   1.00800           0
      6115 MEMB     50       POPE     H12B     HAL2     0.900000E-01   1.00800           0
      6116 MEMB     50       POPE     C11      CTL2    -0.800000E-01   12.0110           0
      6117 MEMB     50       POPE     H11A     HAL2     0.900000E-01   1.00800           0
      6118 MEMB     50       POPE     H11B     HAL2     0.900000E-01   1.00800           0
      6119 MEMB     50       POPE     P        PL        1.50000       30.9740           0
      6120 MEMB     50       POPE     O13      O2L     -0.780000       15.9994           0
      6121 MEMB     50       POPE     O14      O2L     -0.780000       15.9994           0
      6122 MEMB     50       POPE     O11      OSLP    -0.570000       15.9994           0
      6123 MEMB     50       POPE     O12      OSLP    -0.570000       15.9994           0
      6124 MEMB     50       POPE     C1       CTL2    -0.800000E-01   12.0110           0
      6125 MEMB     50       POPE     HA       HAL2     0.900000E-01   1.00800           0
      6126 MEMB     50       POPE     HB       HAL2     0.900000E-01   1.00800           0
      6127 MEMB     50       POPE     C2       CTL1     0.170000       12.0110           0
      6128 MEMB     50       POPE     HS       HAL1     0.900000E-01   1.00800           0
      6129 MEMB     50       POPE     O21      OSL     -0.490000       15.9994           0
      6130 MEMB     50       POPE     C21      CL       0.900000       12.0110           0
      6131 MEMB     50       POPE     O22      OBL     -0.630000       15.9994           0
      6132 MEMB     50       POPE     C22      CTL2    -0.220000       12.0110           0
      6133 MEMB     50       POPE     H2R      HAL2     0.900000E-01   1.00800           0
      6134 MEMB     50       POPE     H2S      HAL2     0.900000E-01   1.00800           0
      6135 MEMB     50       POPE     C3       CTL2     0.800000E-01   12.0110           0
      6136 MEMB     50       POPE     HX       HAL2     0.900000E-01   1.00800           0
      6137 MEMB     50       POPE     HY       HAL2     0.900000E-01   1.00800           0
      6138 MEMB     50       POPE     O31      OSL     -0.490000       15.9994           0
      6139 MEMB     50       POPE     C31      CL       0.900000       12.0110           0
      6140 MEMB     50       POPE     O32      OBL     -0.630000       15.9994           0
      6141 MEMB     50       POPE     C32      CTL2    -0.220000       12.0110           0
      6142 MEMB     50       POPE     H2X      HAL2     0.900000E-01   1.00800           0
      6143 MEMB     50       POPE     H2Y      HAL2     0.900000E-01   1.00800           0
      6144 MEMB     50       POPE     C23      CTL2    -0.180000       12.0110           0
      6145 MEMB     50       POPE     H3R      HAL2     0.900000E-01   1.00800           0
      6146 MEMB     50       POPE     H3S      HAL2     0.900000E-01   1.00800           0
      6147 MEMB     50       POPE     C24      CTL2    -0.180000       12.0110           0
      6148 MEMB     50       POPE     H4R      HAL2     0.900000E-01   1.00800           0
      6149 MEMB     50       POPE     H4S      HAL2     0.900000E-01   1.00800           0
      6150 MEMB     50       POPE     C25      CTL2    -0.180000       12.0110           0
      6151 MEMB     50       POPE     H5R      HAL2     0.900000E-01   1.00800           0
      6152 MEMB     50       POPE     H5S      HAL2     0.900000E-01   1.00800           0
      6153 MEMB     50       POPE     C26      CTL2    -0.180000       12.0110           0
      6154 MEMB     50       POPE     H6R      HAL2     0.900000E-01   1.00800           0
      6155 MEMB     50       POPE     H6S      HAL2     0.900000E-01   1.00800           0
      6156 MEMB     50       POPE     C27      CTL2    -0.180000       12.0110           0
      6157 MEMB     50       POPE     H7R      HAL2     0.900000E-01   1.00800           0
      6158 MEMB     50       POPE     H7S      HAL2     0.900000E-01   1.00800           0
      6159 MEMB     50       POPE     C28      CTL2    -0.180000       12.0110           0
      6160 MEMB     50       POPE     H8R      HAL2     0.900000E-01   1.00800           0
      6161 MEMB     50       POPE     H8S      HAL2     0.900000E-01   1.00800           0
      6162 MEMB     50       POPE     C29      CEL1    -0.150000       12.0110           0
      6163 MEMB     50       POPE     H91      HEL1     0.150000       1.00800           0
      6164 MEMB     50       POPE     C210     CEL1    -0.150000       12.0110           0
      6165 MEMB     50       POPE     H101     HEL1     0.150000       1.00800           0
      6166 MEMB     50       POPE     C211     CTL2    -0.180000       12.0110           0
      6167 MEMB     50       POPE     H11R     HAL2     0.900000E-01   1.00800           0
      6168 MEMB     50       POPE     H11S     HAL2     0.900000E-01   1.00800           0
      6169 MEMB     50       POPE     C212     CTL2    -0.180000       12.0110           0
      6170 MEMB     50       POPE     H12R     HAL2     0.900000E-01   1.00800           0
      6171 MEMB     50       POPE     H12S     HAL2     0.900000E-01   1.00800           0
      6172 MEMB     50       POPE     C213     CTL2    -0.180000       12.0110           0
      6173 MEMB     50       POPE     H13R     HAL2     0.900000E-01   1.00800           0
      6174 MEMB     50       POPE     H13S     HAL2     0.900000E-01   1.00800           0
      6175 MEMB     50       POPE     C214     CTL2    -0.180000       12.0110           0
      6176 MEMB     50       POPE     H14R     HAL2     0.900000E-01   1.00800           0
      6177 MEMB     50       POPE     H14S     HAL2     0.900000E-01   1.00800           0
      6178 MEMB     50       POPE     C215     CTL2    -0.180000       12.0110           0
      6179 MEMB     50       POPE     H15R     HAL2     0.900000E-01   1.00800           0
      6180 MEMB     50       POPE     H15S     HAL2     0.900000E-01   1.00800           0
      6181 MEMB     50       POPE     C216     CTL2    -0.180000       12.0110           0
      6182 MEMB     50       POPE     H16R     HAL2     0.900000E-01   1.00800           0
      6183 MEMB     50       POPE     H16S     HAL2     0.900000E-01   1.00800           0
      6184 MEMB     50       POPE     C217     CTL2    -0.180000       12.0110           0
      6185 MEMB     50       POPE     H17R     HAL2     0.900000E-01   1.00800           0
      6186 MEMB     50       POPE     H17S     HAL2     0.900000E-01   1.00800           0
      6187 MEMB     50       POPE     C218     CTL3    -0.270000       12.0110           0
      6188 MEMB     50       POPE     H18R     HAL3     0.900000E-01   1.00800           0
      6189 MEMB     50       POPE     H18S     HAL3     0.900000E-01   1.00800           0
      6190 MEMB     50       POPE     H18T     HAL3     0.900000E-01   1.00800           0
      6191 MEMB     50       POPE     C33      CTL2    -0.180000       12.0110           0
      6192 MEMB     50       POPE     H3X      HAL2     0.900000E-01   1.00800           0
      6193 MEMB     50       POPE     H3Y      HAL2     0.900000E-01   1.00800           0
      6194 MEMB     50       POPE     C34      CTL2    -0.180000       12.0110           0
      6195 MEMB     50       POPE     H4X      HAL2     0.900000E-01   1.00800           0
      6196 MEMB     50       POPE     H4Y      HAL2     0.900000E-01   1.00800           0
      6197 MEMB     50       POPE     C35      CTL2    -0.180000       12.0110           0
      6198 MEMB     50       POPE     H5X      HAL2     0.900000E-01   1.00800           0
      6199 MEMB     50       POPE     H5Y      HAL2     0.900000E-01   1.00800           0
      6200 MEMB     50       POPE     C36      CTL2    -0.180000       12.0110           0
      6201 MEMB     50       POPE     H6X      HAL2     0.900000E-01   1.00800           0
      6202 MEMB     50       POPE     H6Y      HAL2     0.900000E-01   1.00800           0
      6203 MEMB     50       POPE     C37      CTL2    -0.180000       12.0110           0
      6204 MEMB     50       POPE     H7X      HAL2     0.900000E-01   1.00800           0
      6205 MEMB     50       POPE     H7Y      HAL2     0.900000E-01   1.00800           0
      6206 MEMB     50       POPE     C38      CTL2    -0.180000       12.0110           0
      6207 MEMB     50       POPE     H8X      HAL2     0.900000E-01   1.00800           0
      6208 MEMB     50       POPE     H8Y      HAL2     0.900000E-01   1.00800           0
      6209 MEMB     50       POPE     C39      CTL2    -0.180000       12.0110           0
      6210 MEMB     50       POPE     H9X      HAL2     0.900000E-01   1.00800           0
      6211 MEMB     50       POPE     H9Y      HAL2     0.900000E-01   1.00800           0
      6212 MEMB     50       POPE     C310     CTL2    -0.180000       12.0110           0
      6213 MEMB     50       POPE     H10X     HAL2     0.900000E-01   1.00800           0
      6214 MEMB     50       POPE     H10Y     HAL2     0.900000E-01   1.00800           0
      6215 MEMB     50       POPE     C311     CTL2    -0.180000       12.0110           0
      6216 MEMB     50       POPE     H11X     HAL2     0.900000E-01   1.00800           0
      6217 MEMB     50       POPE     H11Y     HAL2     0.900000E-01   1.00800           0
      6218 MEMB     50       POPE     C312     CTL2    -0.180000       12.0110           0
      6219 MEMB     50       POPE     H12X     HAL2     0.900000E-01   1.00800           0
      6220 MEMB     50       POPE     H12Y     HAL2     0.900000E-01   1.00800           0
      6221 MEMB     50       POPE     C313     CTL2    -0.180000       12.0110           0
      6222 MEMB     50       POPE     H13X     HAL2     0.900000E-01   1.00800           0
      6223 MEMB     50       POPE     H13Y     HAL2     0.900000E-01   1.00800           0
      6224 MEMB     50       POPE     C314     CTL2    -0.180000       12.0110           0
      6225 MEMB     50       POPE     H14X     HAL2     0.900000E-01   1.00800           0
      6226 MEMB     50       POPE     H14Y     HAL2     0.900000E-01   1.00800           0
      6227 MEMB     50       POPE     C315     CTL2    -0.180000       12.0110           0
      6228 MEMB     50       POPE     H15X     HAL2     0.900000E-01   1.00800           0
      6229 MEMB     50       POPE     H15Y     HAL2     0.900000E-01   1.00800           0
      6230 MEMB     50       POPE     C316     CTL3    -0.270000       12.0110           0
      6231 MEMB     50       POPE     H16X     HAL3     0.900000E-01   1.00800           0
      6232 MEMB     50       POPE     H16Y     HAL3     0.900000E-01   1.00800           0
      6233 MEMB     50       POPE     H16Z     HAL3     0.900000E-01   1.00800           0
      6234 MEMB     51       QMPE     N        NH3L    -0.300000       14.0070           0
      6235 MEMB     51       QMPE     HN1      HCL      0.330000       1.00800           0
      6236 MEMB     51       QMPE     HN2      HCL      0.330000       1.00800           0
      6237 MEMB     51       QMPE     HN3      HCL      0.330000       1.00800           0
      6238 MEMB     51       QMPE     C12      CTL2     0.130000       12.0110           0
      6239 MEMB     51       QMPE     H12A     HAL2     0.900000E-01   1.00800           0
      6240 MEMB     51       QMPE     H12B     HAL2     0.900000E-01   1.00800           0
      6241 MEMB     51       QMPE     C11      CTL2    -0.800000E-01   12.0110           0
      6242 MEMB     51       QMPE     H11A     HAL2     0.900000E-01   1.00800           0
      6243 MEMB     51       QMPE     H11B     HAL2     0.900000E-01   1.00800           0
      6244 MEMB     51       QMPE     P        PL        1.50000       30.9740           0
      6245 MEMB     51       QMPE     O13      O2L     -0.780000       15.9994           0
      6246 MEMB     51       QMPE     O14      O2L     -0.780000       15.9994           0
      6247 MEMB     51       QMPE     O11      OSLP    -0.570000       15.9994           0
      6248 MEMB     51       QMPE     O12      OSLP    -0.570000       15.9994           0
      6249 MEMB     51       QMPE     C1       CTL2    -0.800000E-01   12.0110           0
      6250 MEMB     51       QMPE     HA       HAL2     0.900000E-01   1.00800           0
      6251 MEMB     51       QMPE     HB       HAL2     0.900000E-01   1.00800           0
      6252 MEMB     51       QMPE     C2       CTL1     0.170000       12.0110           0
      6253 MEMB     51       QMPE     HS       HAL1     0.900000E-01   1.00800           0
      6254 MEMB     51       QMPE     O21      OSL     -0.490000       15.9994           0
      6255 MEMB     51       QMPE     C21      CL       0.900000       12.0110           0
      6256 MEMB     51       QMPE     O22      OBL     -0.630000       15.9994           0
      6257 MEMB     51       QMPE     C22      CTL2    -0.220000       12.0110           0
      6258 MEMB     51       QMPE     H2R      HAL2     0.900000E-01   1.00800           0
      6259 MEMB     51       QMPE     H2S      HAL2     0.900000E-01   1.00800           0
      6260 MEMB     51       QMPE     C3       CTL2     0.800000E-01   12.0110           0
      6261 MEMB     51       QMPE     HX       HAL2     0.900000E-01   1.00800           0
      6262 MEMB     51       QMPE     HY       HAL2     0.900000E-01   1.00800           0
      6263 MEMB     51       QMPE     O31      OSL     -0.490000       15.9994           0
      6264 MEMB     51       QMPE     C31      CL       0.900000       12.0110           0
      6265 MEMB     51       QMPE     O32      OBL     -0.630000       15.9994           0
      6266 MEMB     51       QMPE     C32      CTL2    -0.220000       12.0110           0
      6267 MEMB     51       QMPE     H2X      HAL2     0.900000E-01   1.00800           0
      6268 MEMB     51       QMPE     H2Y      HAL2     0.900000E-01   1.00800           0
      6269 MEMB     51       QMPE     C23      CTL2    -0.180000       12.0110           0
      6270 MEMB     51       QMPE     H3R      HAL2     0.900000E-01   1.00800           0
      6271 MEMB     51       QMPE     H3S      HAL2     0.900000E-01   1.00800           0
      6272 MEMB     51       QMPE     C24      CTL2    -0.180000       12.0110           0
      6273 MEMB     51       QMPE     H4R      HAL2     0.900000E-01   1.00800           0
      6274 MEMB     51       QMPE     H4S      HAL2     0.900000E-01   1.00800           0
      6275 MEMB     51       QMPE     C25      CTL2    -0.180000       12.0110           0
      6276 MEMB     51       QMPE     H5R      HAL2     0.900000E-01   1.00800           0
      6277 MEMB     51       QMPE     H5S      HAL2     0.900000E-01   1.00800           0
      6278 MEMB     51       QMPE     C26      CTL2    -0.180000       12.0110           0
      6279 MEMB     51       QMPE     H6R      HAL2     0.900000E-01   1.00800           0
      6280 MEMB     51       QMPE     H6S      HAL2     0.900000E-01   1.00800           0
      6281 MEMB     51       QMPE     C27      CTL2    -0.180000       12.0110           0
      6282 MEMB     51       QMPE     H7R      HAL2     0.900000E-01   1.00800           0
      6283 MEMB     51       QMPE     H7S      HAL2     0.900000E-01   1.00800           0
      6284 MEMB     51       QMPE     C28      CTL2    -0.180000       12.0110           0
      6285 MEMB     51       QMPE     H8R      HAL2     0.900000E-01   1.00800           0
      6286 MEMB     51       QMPE     H8S      HAL2     0.900000E-01   1.00800           0
      6287 MEMB     51       QMPE     C29      CG3RC1  -0.900000E-01   12.0110           0
      6288 MEMB     51       QMPE     H9R      HGA1     0.900000E-01   1.00800           0
      6289 MEMB     51       QMPE     C217     CG3C31  -0.180000       12.0110           0
      6290 MEMB     51       QMPE     H17R     HGA2     0.900000E-01   1.00800           0
      6291 MEMB     51       QMPE     H17S     HGA2     0.900000E-01   1.00800           0
      6292 MEMB     51       QMPE     C210     CG3RC1  -0.900000E-01   12.0110           0
      6293 MEMB     51       QMPE     H10R     HGA1     0.900000E-01   1.00800           0
      6294 MEMB     51       QMPE     C211     CTL2    -0.180000       12.0110           0
      6295 MEMB     51       QMPE     H11R     HAL2     0.900000E-01   1.00800           0
      6296 MEMB     51       QMPE     H11S     HAL2     0.900000E-01   1.00800           0
      6297 MEMB     51       QMPE     C212     CTL2    -0.180000       12.0110           0
      6298 MEMB     51       QMPE     H12R     HAL2     0.900000E-01   1.00800           0
      6299 MEMB     51       QMPE     H12S     HAL2     0.900000E-01   1.00800           0
      6300 MEMB     51       QMPE     C213     CTL2    -0.180000       12.0110           0
      6301 MEMB     51       QMPE     H13R     HAL2     0.900000E-01   1.00800           0
      6302 MEMB     51       QMPE     H13S     HAL2     0.900000E-01   1.00800           0
      6303 MEMB     51       QMPE     C214     CTL2    -0.180000       12.0110           0
      6304 MEMB     51       QMPE     H14R     HAL2     0.900000E-01   1.00800           0
      6305 MEMB     51       QMPE     H14S     HAL2     0.900000E-01   1.00800           0
      6306 MEMB     51       QMPE     C215     CTL2    -0.180000       12.0110           0
      6307 MEMB     51       QMPE     H15R     HAL2     0.900000E-01   1.00800           0
      6308 MEMB     51       QMPE     H15S     HAL2     0.900000E-01   1.00800           0
      6309 MEMB     51       QMPE     C216     CTL3    -0.270000       12.0110           0
      6310 MEMB     51       QMPE     H16R     HAL3     0.900000E-01   1.00800           0
      6311 MEMB     51       QMPE     H16S     HAL3     0.900000E-01   1.00800           0
      6312 MEMB     51       QMPE     H16T     HAL3     0.900000E-01   1.00800           0
      6313 MEMB     51       QMPE     C33      CTL2    -0.180000       12.0110           0
      6314 MEMB     51       QMPE     H3X      HAL2     0.900000E-01   1.00800           0
      6315 MEMB     51       QMPE     H3Y      HAL2     0.900000E-01   1.00800           0
      6316 MEMB     51       QMPE     C34      CTL2    -0.180000       12.0110           0
      6317 MEMB     51       QMPE     H4X      HAL2     0.900000E-01   1.00800           0
      6318 MEMB     51       QMPE     H4Y      HAL2     0.900000E-01   1.00800           0
      6319 MEMB     51       QMPE     C35      CTL2    -0.180000       12.0110           0
      6320 MEMB     51       QMPE     H5X      HAL2     0.900000E-01   1.00800           0
      6321 MEMB     51       QMPE     H5Y      HAL2     0.900000E-01   1.00800           0
      6322 MEMB     51       QMPE     C36      CTL2    -0.180000       12.0110           0
      6323 MEMB     51       QMPE     H6X      HAL2     0.900000E-01   1.00800           0
      6324 MEMB     51       QMPE     H6Y      HAL2     0.900000E-01   1.00800           0
      6325 MEMB     51       QMPE     C37      CTL2    -0.180000       12.0110           0
      6326 MEMB     51       QMPE     H7X      HAL2     0.900000E-01   1.00800           0
      6327 MEMB     51       QMPE     H7Y      HAL2     0.900000E-01   1.00800           0
      6328 MEMB     51       QMPE     C38      CTL2    -0.180000       12.0110           0
      6329 MEMB     51       QMPE     H8X      HAL2     0.900000E-01   1.00800           0
      6330 MEMB     51       QMPE     H8Y      HAL2     0.900000E-01   1.00800           0
      6331 MEMB     51       QMPE     C39      CTL2    -0.180000       12.0110           0
      6332 MEMB     51       QMPE     H9X      HAL2     0.900000E-01   1.00800           0
      6333 MEMB     51       QMPE     H9Y      HAL2     0.900000E-01   1.00800           0
      6334 MEMB     51       QMPE     C310     CTL2    -0.180000       12.0110           0
      6335 MEMB     51       QMPE     H10X     HAL2     0.900000E-01   1.00800           0
      6336 MEMB     51       QMPE     H10Y     HAL2     0.900000E-01   1.00800           0
      6337 MEMB     51       QMPE     C311     CTL2    -0.180000       12.0110           0
      6338 MEMB     51       QMPE     H11X     HAL2     0.900000E-01   1.00800           0
      6339 MEMB     51       QMPE     H11Y     HAL2     0.900000E-01   1.00800           0
      6340 MEMB     51       QMPE     C312     CTL2    -0.180000       12.0110           0
      6341 MEMB     51       QMPE     H12X     HAL2     0.900000E-01   1.00800           0
      6342 MEMB     51       QMPE     H12Y     HAL2     0.900000E-01   1.00800           0
      6343 MEMB     51       QMPE     C313     CTL2    -0.180000       12.0110           0
      6344 MEMB     51       QMPE     H13X     HAL2     0.900000E-01   1.00800           0
      6345 MEMB     51       QMPE     H13Y     HAL2     0.900000E-01   1.00800           0
      6346 MEMB     51       QMPE     C314     CTL2    -0.180000       12.0110           0
      6347 MEMB     51       QMPE     H14X     HAL2     0.900000E-01   1.00800           0
      6348 MEMB     51       QMPE     H14Y     HAL2     0.900000E-01   1.00800           0
      6349 MEMB     51       QMPE     C315     CTL3    -0.270000       12.0110           0
      6350 MEMB     51       QMPE     H15X     HAL3     0.900000E-01   1.00800           0
      6351 MEMB     51       QMPE     H15Y     HAL3     0.900000E-01   1.00800           0
      6352 MEMB     51       QMPE     H15Z     HAL3     0.900000E-01   1.00800           0
      6353 MEMB     52       PMPE     N        NH3L    -0.300000       14.0070           0
      6354 MEMB     52       PMPE     HN1      HCL      0.330000       1.00800           0
      6355 MEMB     52       PMPE     HN2      HCL      0.330000       1.00800           0
      6356 MEMB     52       PMPE     HN3      HCL      0.330000       1.00800           0
      6357 MEMB     52       PMPE     C12      CTL2     0.130000       12.0110           0
      6358 MEMB     52       PMPE     H12A     HAL2     0.900000E-01   1.00800           0
      6359 MEMB     52       PMPE     H12B     HAL2     0.900000E-01   1.00800           0
      6360 MEMB     52       PMPE     C11      CTL2    -0.800000E-01   12.0110           0
      6361 MEMB     52       PMPE     H11A     HAL2     0.900000E-01   1.00800           0
      6362 MEMB     52       PMPE     H11B     HAL2     0.900000E-01   1.00800           0
      6363 MEMB     52       PMPE     P        PL        1.50000       30.9740           0
      6364 MEMB     52       PMPE     O13      O2L     -0.780000       15.9994           0
      6365 MEMB     52       PMPE     O14      O2L     -0.780000       15.9994           0
      6366 MEMB     52       PMPE     O11      OSLP    -0.570000       15.9994           0
      6367 MEMB     52       PMPE     O12      OSLP    -0.570000       15.9994           0
      6368 MEMB     52       PMPE     C1       CTL2    -0.800000E-01   12.0110           0
      6369 MEMB     52       PMPE     HA       HAL2     0.900000E-01   1.00800           0
      6370 MEMB     52       PMPE     HB       HAL2     0.900000E-01   1.00800           0
      6371 MEMB     52       PMPE     C2       CTL1     0.170000       12.0110           0
      6372 MEMB     52       PMPE     HS       HAL1     0.900000E-01   1.00800           0
      6373 MEMB     52       PMPE     O21      OSL     -0.490000       15.9994           0
      6374 MEMB     52       PMPE     C21      CL       0.900000       12.0110           0
      6375 MEMB     52       PMPE     O22      OBL     -0.630000       15.9994           0
      6376 MEMB     52       PMPE     C22      CTL2    -0.220000       12.0110           0
      6377 MEMB     52       PMPE     H2R      HAL2     0.900000E-01   1.00800           0
      6378 MEMB     52       PMPE     H2S      HAL2     0.900000E-01   1.00800           0
      6379 MEMB     52       PMPE     C3       CTL2     0.800000E-01   12.0110           0
      6380 MEMB     52       PMPE     HX       HAL2     0.900000E-01   1.00800           0
      6381 MEMB     52       PMPE     HY       HAL2     0.900000E-01   1.00800           0
      6382 MEMB     52       PMPE     O31      OSL     -0.490000       15.9994           0
      6383 MEMB     52       PMPE     C31      CL       0.900000       12.0110           0
      6384 MEMB     52       PMPE     O32      OBL     -0.630000       15.9994           0
      6385 MEMB     52       PMPE     C32      CTL2    -0.220000       12.0110           0
      6386 MEMB     52       PMPE     H2X      HAL2     0.900000E-01   1.00800           0
      6387 MEMB     52       PMPE     H2Y      HAL2     0.900000E-01   1.00800           0
      6388 MEMB     52       PMPE     C23      CTL2    -0.180000       12.0110           0
      6389 MEMB     52       PMPE     H3R      HAL2     0.900000E-01   1.00800           0
      6390 MEMB     52       PMPE     H3S      HAL2     0.900000E-01   1.00800           0
      6391 MEMB     52       PMPE     C24      CTL2    -0.180000       12.0110           0
      6392 MEMB     52       PMPE     H4R      HAL2     0.900000E-01   1.00800           0
      6393 MEMB     52       PMPE     H4S      HAL2     0.900000E-01   1.00800           0
      6394 MEMB     52       PMPE     C25      CTL2    -0.180000       12.0110           0
      6395 MEMB     52       PMPE     H5R      HAL2     0.900000E-01   1.00800           0
      6396 MEMB     52       PMPE     H5S      HAL2     0.900000E-01   1.00800           0
      6397 MEMB     52       PMPE     C26      CTL2    -0.180000       12.0110           0
      6398 MEMB     52       PMPE     H6R      HAL2     0.900000E-01   1.00800           0
      6399 MEMB     52       PMPE     H6S      HAL2     0.900000E-01   1.00800           0
      6400 MEMB     52       PMPE     C27      CTL2    -0.180000       12.0110           0
      6401 MEMB     52       PMPE     H7R      HAL2     0.900000E-01   1.00800           0
      6402 MEMB     52       PMPE     H7S      HAL2     0.900000E-01   1.00800           0
      6403 MEMB     52       PMPE     C28      CTL2    -0.180000       12.0110           0
      6404 MEMB     52       PMPE     H8R      HAL2     0.900000E-01   1.00800           0
      6405 MEMB     52       PMPE     H8S      HAL2     0.900000E-01   1.00800           0
      6406 MEMB     52       PMPE     C29      CG3RC1  -0.900000E-01   12.0110           0
      6407 MEMB     52       PMPE     H9R      HGA1     0.900000E-01   1.00800           0
      6408 MEMB     52       PMPE     C217     CG3C31  -0.180000       12.0110           0
      6409 MEMB     52       PMPE     H17R     HGA2     0.900000E-01   1.00800           0
      6410 MEMB     52       PMPE     H17S     HGA2     0.900000E-01   1.00800           0
      6411 MEMB     52       PMPE     C210     CG3RC1  -0.900000E-01   12.0110           0
      6412 MEMB     52       PMPE     H10R     HGA1     0.900000E-01   1.00800           0
      6413 MEMB     52       PMPE     C211     CTL2    -0.180000       12.0110           0
      6414 MEMB     52       PMPE     H11R     HAL2     0.900000E-01   1.00800           0
      6415 MEMB     52       PMPE     H11S     HAL2     0.900000E-01   1.00800           0
      6416 MEMB     52       PMPE     C212     CTL2    -0.180000       12.0110           0
      6417 MEMB     52       PMPE     H12R     HAL2     0.900000E-01   1.00800           0
      6418 MEMB     52       PMPE     H12S     HAL2     0.900000E-01   1.00800           0
      6419 MEMB     52       PMPE     C213     CTL2    -0.180000       12.0110           0
      6420 MEMB     52       PMPE     H13R     HAL2     0.900000E-01   1.00800           0
      6421 MEMB     52       PMPE     H13S     HAL2     0.900000E-01   1.00800           0
      6422 MEMB     52       PMPE     C214     CTL2    -0.180000       12.0110           0
      6423 MEMB     52       PMPE     H14R     HAL2     0.900000E-01   1.00800           0
      6424 MEMB     52       PMPE     H14S     HAL2     0.900000E-01   1.00800           0
      6425 MEMB     52       PMPE     C215     CTL2    -0.180000       12.0110           0
      6426 MEMB     52       PMPE     H15R     HAL2     0.900000E-01   1.00800           0
      6427 MEMB     52       PMPE     H15S     HAL2     0.900000E-01   1.00800           0
      6428 MEMB     52       PMPE     C216     CTL3    -0.270000       12.0110           0
      6429 MEMB     52       PMPE     H16R     HAL3     0.900000E-01   1.00800           0
      6430 MEMB     52       PMPE     H16S     HAL3     0.900000E-01   1.00800           0
      6431 MEMB     52       PMPE     H16T     HAL3     0.900000E-01   1.00800           0
      6432 MEMB     52       PMPE     C33      CTL2    -0.180000       12.0110           0
      6433 MEMB     52       PMPE     H3X      HAL2     0.900000E-01   1.00800           0
      6434 MEMB     52       PMPE     H3Y      HAL2     0.900000E-01   1.00800           0
      6435 MEMB     52       PMPE     C34      CTL2    -0.180000       12.0110           0
      6436 MEMB     52       PMPE     H4X      HAL2     0.900000E-01   1.00800           0
      6437 MEMB     52       PMPE     H4Y      HAL2     0.900000E-01   1.00800           0
      6438 MEMB     52       PMPE     C35      CTL2    -0.180000       12.0110           0
      6439 MEMB     52       PMPE     H5X      HAL2     0.900000E-01   1.00800           0
      6440 MEMB     52       PMPE     H5Y      HAL2     0.900000E-01   1.00800           0
      6441 MEMB     52       PMPE     C36      CTL2    -0.180000       12.0110           0
      6442 MEMB     52       PMPE     H6X      HAL2     0.900000E-01   1.00800           0
      6443 MEMB     52       PMPE     H6Y      HAL2     0.900000E-01   1.00800           0
      6444 MEMB     52       PMPE     C37      CTL2    -0.180000       12.0110           0
      6445 MEMB     52       PMPE     H7X      HAL2     0.900000E-01   1.00800           0
      6446 MEMB     52       PMPE     H7Y      HAL2     0.900000E-01   1.00800           0
      6447 MEMB     52       PMPE     C38      CTL2    -0.180000       12.0110           0
      6448 MEMB     52       PMPE     H8X      HAL2     0.900000E-01   1.00800           0
      6449 MEMB     52       PMPE     H8Y      HAL2     0.900000E-01   1.00800           0
      6450 MEMB     52       PMPE     C39      CTL2    -0.180000       12.0110           0
      6451 MEMB     52       PMPE     H9X      HAL2     0.900000E-01   1.00800           0
      6452 MEMB     52       PMPE     H9Y      HAL2     0.900000E-01   1.00800           0
      6453 MEMB     52       PMPE     C310     CTL2    -0.180000       12.0110           0
      6454 MEMB     52       PMPE     H10X     HAL2     0.900000E-01   1.00800           0
      6455 MEMB     52       PMPE     H10Y     HAL2     0.900000E-01   1.00800           0
      6456 MEMB     52       PMPE     C311     CTL2    -0.180000       12.0110           0
      6457 MEMB     52       PMPE     H11X     HAL2     0.900000E-01   1.00800           0
      6458 MEMB     52       PMPE     H11Y     HAL2     0.900000E-01   1.00800           0
      6459 MEMB     52       PMPE     C312     CTL2    -0.180000       12.0110           0
      6460 MEMB     52       PMPE     H12X     HAL2     0.900000E-01   1.00800           0
      6461 MEMB     52       PMPE     H12Y     HAL2     0.900000E-01   1.00800           0
      6462 MEMB     52       PMPE     C313     CTL2    -0.180000       12.0110           0
      6463 MEMB     52       PMPE     H13X     HAL2     0.900000E-01   1.00800           0
      6464 MEMB     52       PMPE     H13Y     HAL2     0.900000E-01   1.00800           0
      6465 MEMB     52       PMPE     C314     CTL2    -0.180000       12.0110           0
      6466 MEMB     52       PMPE     H14X     HAL2     0.900000E-01   1.00800           0
      6467 MEMB     52       PMPE     H14Y     HAL2     0.900000E-01   1.00800           0
      6468 MEMB     52       PMPE     C315     CTL2    -0.180000       12.0110           0
      6469 MEMB     52       PMPE     H15X     HAL2     0.900000E-01   1.00800           0
      6470 MEMB     52       PMPE     H15Y     HAL2     0.900000E-01   1.00800           0
      6471 MEMB     52       PMPE     C316     CTL3    -0.270000       12.0110           0
      6472 MEMB     52       PMPE     H16X     HAL3     0.900000E-01   1.00800           0
      6473 MEMB     52       PMPE     H16Y     HAL3     0.900000E-01   1.00800           0
      6474 MEMB     52       PMPE     H16Z     HAL3     0.900000E-01   1.00800           0
      6475 MEMB     53       PMPE     N        NH3L    -0.300000       14.0070           0
      6476 MEMB     53       PMPE     HN1      HCL      0.330000       1.00800           0
      6477 MEMB     53       PMPE     HN2      HCL      0.330000       1.00800           0
      6478 MEMB     53       PMPE     HN3      HCL      0.330000       1.00800           0
      6479 MEMB     53       PMPE     C12      CTL2     0.130000       12.0110           0
      6480 MEMB     53       PMPE     H12A     HAL2     0.900000E-01   1.00800           0
      6481 MEMB     53       PMPE     H12B     HAL2     0.900000E-01   1.00800           0
      6482 MEMB     53       PMPE     C11      CTL2    -0.800000E-01   12.0110           0
      6483 MEMB     53       PMPE     H11A     HAL2     0.900000E-01   1.00800           0
      6484 MEMB     53       PMPE     H11B     HAL2     0.900000E-01   1.00800           0
      6485 MEMB     53       PMPE     P        PL        1.50000       30.9740           0
      6486 MEMB     53       PMPE     O13      O2L     -0.780000       15.9994           0
      6487 MEMB     53       PMPE     O14      O2L     -0.780000       15.9994           0
      6488 MEMB     53       PMPE     O11      OSLP    -0.570000       15.9994           0
      6489 MEMB     53       PMPE     O12      OSLP    -0.570000       15.9994           0
      6490 MEMB     53       PMPE     C1       CTL2    -0.800000E-01   12.0110           0
      6491 MEMB     53       PMPE     HA       HAL2     0.900000E-01   1.00800           0
      6492 MEMB     53       PMPE     HB       HAL2     0.900000E-01   1.00800           0
      6493 MEMB     53       PMPE     C2       CTL1     0.170000       12.0110           0
      6494 MEMB     53       PMPE     HS       HAL1     0.900000E-01   1.00800           0
      6495 MEMB     53       PMPE     O21      OSL     -0.490000       15.9994           0
      6496 MEMB     53       PMPE     C21      CL       0.900000       12.0110           0
      6497 MEMB     53       PMPE     O22      OBL     -0.630000       15.9994           0
      6498 MEMB     53       PMPE     C22      CTL2    -0.220000       12.0110           0
      6499 MEMB     53       PMPE     H2R      HAL2     0.900000E-01   1.00800           0
      6500 MEMB     53       PMPE     H2S      HAL2     0.900000E-01   1.00800           0
      6501 MEMB     53       PMPE     C3       CTL2     0.800000E-01   12.0110           0
      6502 MEMB     53       PMPE     HX       HAL2     0.900000E-01   1.00800           0
      6503 MEMB     53       PMPE     HY       HAL2     0.900000E-01   1.00800           0
      6504 MEMB     53       PMPE     O31      OSL     -0.490000       15.9994           0
      6505 MEMB     53       PMPE     C31      CL       0.900000       12.0110           0
      6506 MEMB     53       PMPE     O32      OBL     -0.630000       15.9994           0
      6507 MEMB     53       PMPE     C32      CTL2    -0.220000       12.0110           0
      6508 MEMB     53       PMPE     H2X      HAL2     0.900000E-01   1.00800           0
      6509 MEMB     53       PMPE     H2Y      HAL2     0.900000E-01   1.00800           0
      6510 MEMB     53       PMPE     C23      CTL2    -0.180000       12.0110           0
      6511 MEMB     53       PMPE     H3R      HAL2     0.900000E-01   1.00800           0
      6512 MEMB     53       PMPE     H3S      HAL2     0.900000E-01   1.00800           0
      6513 MEMB     53       PMPE     C24      CTL2    -0.180000       12.0110           0
      6514 MEMB     53       PMPE     H4R      HAL2     0.900000E-01   1.00800           0
      6515 MEMB     53       PMPE     H4S      HAL2     0.900000E-01   1.00800           0
      6516 MEMB     53       PMPE     C25      CTL2    -0.180000       12.0110           0
      6517 MEMB     53       PMPE     H5R      HAL2     0.900000E-01   1.00800           0
      6518 MEMB     53       PMPE     H5S      HAL2     0.900000E-01   1.00800           0
      6519 MEMB     53       PMPE     C26      CTL2    -0.180000       12.0110           0
      6520 MEMB     53       PMPE     H6R      HAL2     0.900000E-01   1.00800           0
      6521 MEMB     53       PMPE     H6S      HAL2     0.900000E-01   1.00800           0
      6522 MEMB     53       PMPE     C27      CTL2    -0.180000       12.0110           0
      6523 MEMB     53       PMPE     H7R      HAL2     0.900000E-01   1.00800           0
      6524 MEMB     53       PMPE     H7S      HAL2     0.900000E-01   1.00800           0
      6525 MEMB     53       PMPE     C28      CTL2    -0.180000       12.0110           0
      6526 MEMB     53       PMPE     H8R      HAL2     0.900000E-01   1.00800           0
      6527 MEMB     53       PMPE     H8S      HAL2     0.900000E-01   1.00800           0
      6528 MEMB     53       PMPE     C29      CG3RC1  -0.900000E-01   12.0110           0
      6529 MEMB     53       PMPE     H9R      HGA1     0.900000E-01   1.00800           0
      6530 MEMB     53       PMPE     C217     CG3C31  -0.180000       12.0110           0
      6531 MEMB     53       PMPE     H17R     HGA2     0.900000E-01   1.00800           0
      6532 MEMB     53       PMPE     H17S     HGA2     0.900000E-01   1.00800           0
      6533 MEMB     53       PMPE     C210     CG3RC1  -0.900000E-01   12.0110           0
      6534 MEMB     53       PMPE     H10R     HGA1     0.900000E-01   1.00800           0
      6535 MEMB     53       PMPE     C211     CTL2    -0.180000       12.0110           0
      6536 MEMB     53       PMPE     H11R     HAL2     0.900000E-01   1.00800           0
      6537 MEMB     53       PMPE     H11S     HAL2     0.900000E-01   1.00800           0
      6538 MEMB     53       PMPE     C212     CTL2    -0.180000       12.0110           0
      6539 MEMB     53       PMPE     H12R     HAL2     0.900000E-01   1.00800           0
      6540 MEMB     53       PMPE     H12S     HAL2     0.900000E-01   1.00800           0
      6541 MEMB     53       PMPE     C213     CTL2    -0.180000       12.0110           0
      6542 MEMB     53       PMPE     H13R     HAL2     0.900000E-01   1.00800           0
      6543 MEMB     53       PMPE     H13S     HAL2     0.900000E-01   1.00800           0
      6544 MEMB     53       PMPE     C214     CTL2    -0.180000       12.0110           0
      6545 MEMB     53       PMPE     H14R     HAL2     0.900000E-01   1.00800           0
      6546 MEMB     53       PMPE     H14S     HAL2     0.900000E-01   1.00800           0
      6547 MEMB     53       PMPE     C215     CTL2    -0.180000       12.0110           0
      6548 MEMB     53       PMPE     H15R     HAL2     0.900000E-01   1.00800           0
      6549 MEMB     53       PMPE     H15S     HAL2     0.900000E-01   1.00800           0
      6550 MEMB     53       PMPE     C216     CTL3    -0.270000       12.0110           0
      6551 MEMB     53       PMPE     H16R     HAL3     0.900000E-01   1.00800           0
      6552 MEMB     53       PMPE     H16S     HAL3     0.900000E-01   1.00800           0
      6553 MEMB     53       PMPE     H16T     HAL3     0.900000E-01   1.00800           0
      6554 MEMB     53       PMPE     C33      CTL2    -0.180000       12.0110           0
      6555 MEMB     53       PMPE     H3X      HAL2     0.900000E-01   1.00800           0
      6556 MEMB     53       PMPE     H3Y      HAL2     0.900000E-01   1.00800           0
      6557 MEMB     53       PMPE     C34      CTL2    -0.180000       12.0110           0
      6558 MEMB     53       PMPE     H4X      HAL2     0.900000E-01   1.00800           0
      6559 MEMB     53       PMPE     H4Y      HAL2     0.900000E-01   1.00800           0
      6560 MEMB     53       PMPE     C35      CTL2    -0.180000       12.0110           0
      6561 MEMB     53       PMPE     H5X      HAL2     0.900000E-01   1.00800           0
      6562 MEMB     53       PMPE     H5Y      HAL2     0.900000E-01   1.00800           0
      6563 MEMB     53       PMPE     C36      CTL2    -0.180000       12.0110           0
      6564 MEMB     53       PMPE     H6X      HAL2     0.900000E-01   1.00800           0
      6565 MEMB     53       PMPE     H6Y      HAL2     0.900000E-01   1.00800           0
      6566 MEMB     53       PMPE     C37      CTL2    -0.180000       12.0110           0
      6567 MEMB     53       PMPE     H7X      HAL2     0.900000E-01   1.00800           0
      6568 MEMB     53       PMPE     H7Y      HAL2     0.900000E-01   1.00800           0
      6569 MEMB     53       PMPE     C38      CTL2    -0.180000       12.0110           0
      6570 MEMB     53       PMPE     H8X      HAL2     0.900000E-01   1.00800           0
      6571 MEMB     53       PMPE     H8Y      HAL2     0.900000E-01   1.00800           0
      6572 MEMB     53       PMPE     C39      CTL2    -0.180000       12.0110           0
      6573 MEMB     53       PMPE     H9X      HAL2     0.900000E-01   1.00800           0
      6574 MEMB     53       PMPE     H9Y      HAL2     0.900000E-01   1.00800           0
      6575 MEMB     53       PMPE     C310     CTL2    -0.180000       12.0110           0
      6576 MEMB     53       PMPE     H10X     HAL2     0.900000E-01   1.00800           0
      6577 MEMB     53       PMPE     H10Y     HAL2     0.900000E-01   1.00800           0
      6578 MEMB     53       PMPE     C311     CTL2    -0.180000       12.0110           0
      6579 MEMB     53       PMPE     H11X     HAL2     0.900000E-01   1.00800           0
      6580 MEMB     53       PMPE     H11Y     HAL2     0.900000E-01   1.00800           0
      6581 MEMB     53       PMPE     C312     CTL2    -0.180000       12.0110           0
      6582 MEMB     53       PMPE     H12X     HAL2     0.900000E-01   1.00800           0
      6583 MEMB     53       PMPE     H12Y     HAL2     0.900000E-01   1.00800           0
      6584 MEMB     53       PMPE     C313     CTL2    -0.180000       12.0110           0
      6585 MEMB     53       PMPE     H13X     HAL2     0.900000E-01   1.00800           0
      6586 MEMB     53       PMPE     H13Y     HAL2     0.900000E-01   1.00800           0
      6587 MEMB     53       PMPE     C314     CTL2    -0.180000       12.0110           0
      6588 MEMB     53       PMPE     H14X     HAL2     0.900000E-01   1.00800           0
      6589 MEMB     53       PMPE     H14Y     HAL2     0.900000E-01   1.00800           0
      6590 MEMB     53       PMPE     C315     CTL2    -0.180000       12.0110           0
      6591 MEMB     53       PMPE     H15X     HAL2     0.900000E-01   1.00800           0
      6592 MEMB     53       PMPE     H15Y     HAL2     0.900000E-01   1.00800           0
      6593 MEMB     53       PMPE     C316     CTL3    -0.270000       12.0110           0
      6594 MEMB     53       PMPE     H16X     HAL3     0.900000E-01   1.00800           0
      6595 MEMB     53       PMPE     H16Y     HAL3     0.900000E-01   1.00800           0
      6596 MEMB     53       PMPE     H16Z     HAL3     0.900000E-01   1.00800           0
      6597 MEMB     54       PMPG     C13      CTL2     0.500000E-01   12.0110           0
      6598 MEMB     54       PMPG     H13A     HAL2     0.900000E-01   1.00800           0
      6599 MEMB     54       PMPG     H13B     HAL2     0.900000E-01   1.00800           0
      6600 MEMB     54       PMPG     OC3      OHL     -0.660000       15.9994           0
      6601 MEMB     54       PMPG     HO3      HOL      0.430000       1.00800           0
      6602 MEMB     54       PMPG     C12      CTL1     0.140000       12.0110           0
      6603 MEMB     54       PMPG     H12A     HAL1     0.900000E-01   1.00800           0
      6604 MEMB     54       PMPG     OC2      OHL     -0.660000       15.9994           0
      6605 MEMB     54       PMPG     HO2      HOL      0.430000       1.00800           0
      6606 MEMB     54       PMPG     C11      CTL2    -0.800000E-01   12.0110           0
      6607 MEMB     54       PMPG     H11A     HAL2     0.900000E-01   1.00800           0
      6608 MEMB     54       PMPG     H11B     HAL2     0.900000E-01   1.00800           0
      6609 MEMB     54       PMPG     P        PL        1.50000       30.9740           0
      6610 MEMB     54       PMPG     O13      O2L     -0.780000       15.9994           0
      6611 MEMB     54       PMPG     O14      O2L     -0.780000       15.9994           0
      6612 MEMB     54       PMPG     O11      OSLP    -0.570000       15.9994           0
      6613 MEMB     54       PMPG     O12      OSLP    -0.570000       15.9994           0
      6614 MEMB     54       PMPG     C1       CTL2    -0.800000E-01   12.0110           0
      6615 MEMB     54       PMPG     HA       HAL2     0.900000E-01   1.00800           0
      6616 MEMB     54       PMPG     HB       HAL2     0.900000E-01   1.00800           0
      6617 MEMB     54       PMPG     C2       CTL1     0.170000       12.0110           0
      6618 MEMB     54       PMPG     HS       HAL1     0.900000E-01   1.00800           0
      6619 MEMB     54       PMPG     O21      OSL     -0.490000       15.9994           0
      6620 MEMB     54       PMPG     C21      CL       0.900000       12.0110           0
      6621 MEMB     54       PMPG     O22      OBL     -0.630000       15.9994           0
      6622 MEMB     54       PMPG     C22      CTL2    -0.220000       12.0110           0
      6623 MEMB     54       PMPG     H2R      HAL2     0.900000E-01   1.00800           0
      6624 MEMB     54       PMPG     H2S      HAL2     0.900000E-01   1.00800           0
      6625 MEMB     54       PMPG     C3       CTL2     0.800000E-01   12.0110           0
      6626 MEMB     54       PMPG     HX       HAL2     0.900000E-01   1.00800           0
      6627 MEMB     54       PMPG     HY       HAL2     0.900000E-01   1.00800           0
      6628 MEMB     54       PMPG     O31      OSL     -0.490000       15.9994           0
      6629 MEMB     54       PMPG     C31      CL       0.900000       12.0110           0
      6630 MEMB     54       PMPG     O32      OBL     -0.630000       15.9994           0
      6631 MEMB     54       PMPG     C32      CTL2    -0.220000       12.0110           0
      6632 MEMB     54       PMPG     H2X      HAL2     0.900000E-01   1.00800           0
      6633 MEMB     54       PMPG     H2Y      HAL2     0.900000E-01   1.00800           0
      6634 MEMB     54       PMPG     C23      CTL2    -0.180000       12.0110           0
      6635 MEMB     54       PMPG     H3R      HAL2     0.900000E-01   1.00800           0
      6636 MEMB     54       PMPG     H3S      HAL2     0.900000E-01   1.00800           0
      6637 MEMB     54       PMPG     C24      CTL2    -0.180000       12.0110           0
      6638 MEMB     54       PMPG     H4R      HAL2     0.900000E-01   1.00800           0
      6639 MEMB     54       PMPG     H4S      HAL2     0.900000E-01   1.00800           0
      6640 MEMB     54       PMPG     C25      CTL2    -0.180000       12.0110           0
      6641 MEMB     54       PMPG     H5R      HAL2     0.900000E-01   1.00800           0
      6642 MEMB     54       PMPG     H5S      HAL2     0.900000E-01   1.00800           0
      6643 MEMB     54       PMPG     C26      CTL2    -0.180000       12.0110           0
      6644 MEMB     54       PMPG     H6R      HAL2     0.900000E-01   1.00800           0
      6645 MEMB     54       PMPG     H6S      HAL2     0.900000E-01   1.00800           0
      6646 MEMB     54       PMPG     C27      CTL2    -0.180000       12.0110           0
      6647 MEMB     54       PMPG     H7R      HAL2     0.900000E-01   1.00800           0
      6648 MEMB     54       PMPG     H7S      HAL2     0.900000E-01   1.00800           0
      6649 MEMB     54       PMPG     C28      CTL2    -0.180000       12.0110           0
      6650 MEMB     54       PMPG     H8R      HAL2     0.900000E-01   1.00800           0
      6651 MEMB     54       PMPG     H8S      HAL2     0.900000E-01   1.00800           0
      6652 MEMB     54       PMPG     C29      CG3RC1  -0.900000E-01   12.0110           0
      6653 MEMB     54       PMPG     H9R      HGA1     0.900000E-01   1.00800           0
      6654 MEMB     54       PMPG     C217     CG3C31  -0.180000       12.0110           0
      6655 MEMB     54       PMPG     H17R     HGA2     0.900000E-01   1.00800           0
      6656 MEMB     54       PMPG     H17S     HGA2     0.900000E-01   1.00800           0
      6657 MEMB     54       PMPG     C210     CG3RC1  -0.900000E-01   12.0110           0
      6658 MEMB     54       PMPG     H10R     HGA1     0.900000E-01   1.00800           0
      6659 MEMB     54       PMPG     C211     CTL2    -0.180000       12.0110           0
      6660 MEMB     54       PMPG     H11R     HAL2     0.900000E-01   1.00800           0
      6661 MEMB     54       PMPG     H11S     HAL2     0.900000E-01   1.00800           0
      6662 MEMB     54       PMPG     C212     CTL2    -0.180000       12.0110           0
      6663 MEMB     54       PMPG     H12R     HAL2     0.900000E-01   1.00800           0
      6664 MEMB     54       PMPG     H12S     HAL2     0.900000E-01   1.00800           0
      6665 MEMB     54       PMPG     C213     CTL2    -0.180000       12.0110           0
      6666 MEMB     54       PMPG     H13R     HAL2     0.900000E-01   1.00800           0
      6667 MEMB     54       PMPG     H13S     HAL2     0.900000E-01   1.00800           0
      6668 MEMB     54       PMPG     C214     CTL2    -0.180000       12.0110           0
      6669 MEMB     54       PMPG     H14R     HAL2     0.900000E-01   1.00800           0
      6670 MEMB     54       PMPG     H14S     HAL2     0.900000E-01   1.00800           0
      6671 MEMB     54       PMPG     C215     CTL2    -0.180000       12.0110           0
      6672 MEMB     54       PMPG     H15R     HAL2     0.900000E-01   1.00800           0
      6673 MEMB     54       PMPG     H15S     HAL2     0.900000E-01   1.00800           0
      6674 MEMB     54       PMPG     C216     CTL3    -0.270000       12.0110           0
      6675 MEMB     54       PMPG     H16R     HAL3     0.900000E-01   1.00800           0
      6676 MEMB     54       PMPG     H16S     HAL3     0.900000E-01   1.00800           0
      6677 MEMB     54       PMPG     H16T     HAL3     0.900000E-01   1.00800           0
      6678 MEMB     54       PMPG     C33      CTL2    -0.180000       12.0110           0
      6679 MEMB     54       PMPG     H3X      HAL2     0.900000E-01   1.00800           0
      6680 MEMB     54       PMPG     H3Y      HAL2     0.900000E-01   1.00800           0
      6681 MEMB     54       PMPG     C34      CTL2    -0.180000       12.0110           0
      6682 MEMB     54       PMPG     H4X      HAL2     0.900000E-01   1.00800           0
      6683 MEMB     54       PMPG     H4Y      HAL2     0.900000E-01   1.00800           0
      6684 MEMB     54       PMPG     C35      CTL2    -0.180000       12.0110           0
      6685 MEMB     54       PMPG     H5X      HAL2     0.900000E-01   1.00800           0
      6686 MEMB     54       PMPG     H5Y      HAL2     0.900000E-01   1.00800           0
      6687 MEMB     54       PMPG     C36      CTL2    -0.180000       12.0110           0
      6688 MEMB     54       PMPG     H6X      HAL2     0.900000E-01   1.00800           0
      6689 MEMB     54       PMPG     H6Y      HAL2     0.900000E-01   1.00800           0
      6690 MEMB     54       PMPG     C37      CTL2    -0.180000       12.0110           0
      6691 MEMB     54       PMPG     H7X      HAL2     0.900000E-01   1.00800           0
      6692 MEMB     54       PMPG     H7Y      HAL2     0.900000E-01   1.00800           0
      6693 MEMB     54       PMPG     C38      CTL2    -0.180000       12.0110           0
      6694 MEMB     54       PMPG     H8X      HAL2     0.900000E-01   1.00800           0
      6695 MEMB     54       PMPG     H8Y      HAL2     0.900000E-01   1.00800           0
      6696 MEMB     54       PMPG     C39      CTL2    -0.180000       12.0110           0
      6697 MEMB     54       PMPG     H9X      HAL2     0.900000E-01   1.00800           0
      6698 MEMB     54       PMPG     H9Y      HAL2     0.900000E-01   1.00800           0
      6699 MEMB     54       PMPG     C310     CTL2    -0.180000       12.0110           0
      6700 MEMB     54       PMPG     H10X     HAL2     0.900000E-01   1.00800           0
      6701 MEMB     54       PMPG     H10Y     HAL2     0.900000E-01   1.00800           0
      6702 MEMB     54       PMPG     C311     CTL2    -0.180000       12.0110           0
      6703 MEMB     54       PMPG     H11X     HAL2     0.900000E-01   1.00800           0
      6704 MEMB     54       PMPG     H11Y     HAL2     0.900000E-01   1.00800           0
      6705 MEMB     54       PMPG     C312     CTL2    -0.180000       12.0110           0
      6706 MEMB     54       PMPG     H12X     HAL2     0.900000E-01   1.00800           0
      6707 MEMB     54       PMPG     H12Y     HAL2     0.900000E-01   1.00800           0
      6708 MEMB     54       PMPG     C313     CTL2    -0.180000       12.0110           0
      6709 MEMB     54       PMPG     H13X     HAL2     0.900000E-01   1.00800           0
      6710 MEMB     54       PMPG     H13Y     HAL2     0.900000E-01   1.00800           0
      6711 MEMB     54       PMPG     C314     CTL2    -0.180000       12.0110           0
      6712 MEMB     54       PMPG     H14X     HAL2     0.900000E-01   1.00800           0
      6713 MEMB     54       PMPG     H14Y     HAL2     0.900000E-01   1.00800           0
      6714 MEMB     54       PMPG     C315     CTL2    -0.180000       12.0110           0
      6715 MEMB     54       PMPG     H15X     HAL2     0.900000E-01   1.00800           0
      6716 MEMB     54       PMPG     H15Y     HAL2     0.900000E-01   1.00800           0
      6717 MEMB     54       PMPG     C316     CTL3    -0.270000       12.0110           0
      6718 MEMB     54       PMPG     H16X     HAL3     0.900000E-01   1.00800           0
      6719 MEMB     54       PMPG     H16Y     HAL3     0.900000E-01   1.00800           0
      6720 MEMB     54       PMPG     H16Z     HAL3     0.900000E-01   1.00800           0
      6721 MEMB     55       PYPG     C13      CTL2     0.500000E-01   12.0110           0
      6722 MEMB     55       PYPG     H13A     HAL2     0.900000E-01   1.00800           0
      6723 MEMB     55       PYPG     H13B     HAL2     0.900000E-01   1.00800           0
      6724 MEMB     55       PYPG     OC3      OHL     -0.660000       15.9994           0
      6725 MEMB     55       PYPG     HO3      HOL      0.430000       1.00800           0
      6726 MEMB     55       PYPG     C12      CTL1     0.140000       12.0110           0
      6727 MEMB     55       PYPG     H12A     HAL1     0.900000E-01   1.00800           0
      6728 MEMB     55       PYPG     OC2      OHL     -0.660000       15.9994           0
      6729 MEMB     55       PYPG     HO2      HOL      0.430000       1.00800           0
      6730 MEMB     55       PYPG     C11      CTL2    -0.800000E-01   12.0110           0
      6731 MEMB     55       PYPG     H11A     HAL2     0.900000E-01   1.00800           0
      6732 MEMB     55       PYPG     H11B     HAL2     0.900000E-01   1.00800           0
      6733 MEMB     55       PYPG     P        PL        1.50000       30.9740           0
      6734 MEMB     55       PYPG     O13      O2L     -0.780000       15.9994           0
      6735 MEMB     55       PYPG     O14      O2L     -0.780000       15.9994           0
      6736 MEMB     55       PYPG     O11      OSLP    -0.570000       15.9994           0
      6737 MEMB     55       PYPG     O12      OSLP    -0.570000       15.9994           0
      6738 MEMB     55       PYPG     C1       CTL2    -0.800000E-01   12.0110           0
      6739 MEMB     55       PYPG     HA       HAL2     0.900000E-01   1.00800           0
      6740 MEMB     55       PYPG     HB       HAL2     0.900000E-01   1.00800           0
      6741 MEMB     55       PYPG     C2       CTL1     0.170000       12.0110           0
      6742 MEMB     55       PYPG     HS       HAL1     0.900000E-01   1.00800           0
      6743 MEMB     55       PYPG     O21      OSL     -0.490000       15.9994           0
      6744 MEMB     55       PYPG     C21      CL       0.900000       12.0110           0
      6745 MEMB     55       PYPG     O22      OBL     -0.630000       15.9994           0
      6746 MEMB     55       PYPG     C22      CTL2    -0.220000       12.0110           0
      6747 MEMB     55       PYPG     H2R      HAL2     0.900000E-01   1.00800           0
      6748 MEMB     55       PYPG     H2S      HAL2     0.900000E-01   1.00800           0
      6749 MEMB     55       PYPG     C3       CTL2     0.800000E-01   12.0110           0
      6750 MEMB     55       PYPG     HX       HAL2     0.900000E-01   1.00800           0
      6751 MEMB     55       PYPG     HY       HAL2     0.900000E-01   1.00800           0
      6752 MEMB     55       PYPG     O31      OSL     -0.490000       15.9994           0
      6753 MEMB     55       PYPG     C31      CL       0.900000       12.0110           0
      6754 MEMB     55       PYPG     O32      OBL     -0.630000       15.9994           0
      6755 MEMB     55       PYPG     C32      CTL2    -0.220000       12.0110           0
      6756 MEMB     55       PYPG     H2X      HAL2     0.900000E-01   1.00800           0
      6757 MEMB     55       PYPG     H2Y      HAL2     0.900000E-01   1.00800           0
      6758 MEMB     55       PYPG     C23      CTL2    -0.180000       12.0110           0
      6759 MEMB     55       PYPG     H3R      HAL2     0.900000E-01   1.00800           0
      6760 MEMB     55       PYPG     H3S      HAL2     0.900000E-01   1.00800           0
      6761 MEMB     55       PYPG     C24      CTL2    -0.180000       12.0110           0
      6762 MEMB     55       PYPG     H4R      HAL2     0.900000E-01   1.00800           0
      6763 MEMB     55       PYPG     H4S      HAL2     0.900000E-01   1.00800           0
      6764 MEMB     55       PYPG     C25      CTL2    -0.180000       12.0110           0
      6765 MEMB     55       PYPG     H5R      HAL2     0.900000E-01   1.00800           0
      6766 MEMB     55       PYPG     H5S      HAL2     0.900000E-01   1.00800           0
      6767 MEMB     55       PYPG     C26      CTL2    -0.180000       12.0110           0
      6768 MEMB     55       PYPG     H6R      HAL2     0.900000E-01   1.00800           0
      6769 MEMB     55       PYPG     H6S      HAL2     0.900000E-01   1.00800           0
      6770 MEMB     55       PYPG     C27      CTL2    -0.180000       12.0110           0
      6771 MEMB     55       PYPG     H7R      HAL2     0.900000E-01   1.00800           0
      6772 MEMB     55       PYPG     H7S      HAL2     0.900000E-01   1.00800           0
      6773 MEMB     55       PYPG     C28      CTL2    -0.180000       12.0110           0
      6774 MEMB     55       PYPG     H8R      HAL2     0.900000E-01   1.00800           0
      6775 MEMB     55       PYPG     H8S      HAL2     0.900000E-01   1.00800           0
      6776 MEMB     55       PYPG     C29      CEL1    -0.150000       12.0110           0
      6777 MEMB     55       PYPG     H9R      HEL1     0.150000       1.00800           0
      6778 MEMB     55       PYPG     C210     CEL1    -0.150000       12.0110           0
      6779 MEMB     55       PYPG     H10R     HEL1     0.150000       1.00800           0
      6780 MEMB     55       PYPG     C211     CTL2    -0.180000       12.0110           0
      6781 MEMB     55       PYPG     H11R     HAL2     0.900000E-01   1.00800           0
      6782 MEMB     55       PYPG     H11S     HAL2     0.900000E-01   1.00800           0
      6783 MEMB     55       PYPG     C212     CTL2    -0.180000       12.0110           0
      6784 MEMB     55       PYPG     H12R     HAL2     0.900000E-01   1.00800           0
      6785 MEMB     55       PYPG     H12S     HAL2     0.900000E-01   1.00800           0
      6786 MEMB     55       PYPG     C213     CTL2    -0.180000       12.0110           0
      6787 MEMB     55       PYPG     H13R     HAL2     0.900000E-01   1.00800           0
      6788 MEMB     55       PYPG     H13S     HAL2     0.900000E-01   1.00800           0
      6789 MEMB     55       PYPG     C214     CTL2    -0.180000       12.0110           0
      6790 MEMB     55       PYPG     H14R     HAL2     0.900000E-01   1.00800           0
      6791 MEMB     55       PYPG     H14S     HAL2     0.900000E-01   1.00800           0
      6792 MEMB     55       PYPG     C215     CTL2    -0.180000       12.0110           0
      6793 MEMB     55       PYPG     H15R     HAL2     0.900000E-01   1.00800           0
      6794 MEMB     55       PYPG     H15S     HAL2     0.900000E-01   1.00800           0
      6795 MEMB     55       PYPG     C216     CTL3    -0.270000       12.0110           0
      6796 MEMB     55       PYPG     H16R     HAL3     0.900000E-01   1.00800           0
      6797 MEMB     55       PYPG     H16S     HAL3     0.900000E-01   1.00800           0
      6798 MEMB     55       PYPG     H16T     HAL3     0.900000E-01   1.00800           0
      6799 MEMB     55       PYPG     C33      CTL2    -0.180000       12.0110           0
      6800 MEMB     55       PYPG     H3X      HAL2     0.900000E-01   1.00800           0
      6801 MEMB     55       PYPG     H3Y      HAL2     0.900000E-01   1.00800           0
      6802 MEMB     55       PYPG     C34      CTL2    -0.180000       12.0110           0
      6803 MEMB     55       PYPG     H4X      HAL2     0.900000E-01   1.00800           0
      6804 MEMB     55       PYPG     H4Y      HAL2     0.900000E-01   1.00800           0
      6805 MEMB     55       PYPG     C35      CTL2    -0.180000       12.0110           0
      6806 MEMB     55       PYPG     H5X      HAL2     0.900000E-01   1.00800           0
      6807 MEMB     55       PYPG     H5Y      HAL2     0.900000E-01   1.00800           0
      6808 MEMB     55       PYPG     C36      CTL2    -0.180000       12.0110           0
      6809 MEMB     55       PYPG     H6X      HAL2     0.900000E-01   1.00800           0
      6810 MEMB     55       PYPG     H6Y      HAL2     0.900000E-01   1.00800           0
      6811 MEMB     55       PYPG     C37      CTL2    -0.180000       12.0110           0
      6812 MEMB     55       PYPG     H7X      HAL2     0.900000E-01   1.00800           0
      6813 MEMB     55       PYPG     H7Y      HAL2     0.900000E-01   1.00800           0
      6814 MEMB     55       PYPG     C38      CTL2    -0.180000       12.0110           0
      6815 MEMB     55       PYPG     H8X      HAL2     0.900000E-01   1.00800           0
      6816 MEMB     55       PYPG     H8Y      HAL2     0.900000E-01   1.00800           0
      6817 MEMB     55       PYPG     C39      CTL2    -0.180000       12.0110           0
      6818 MEMB     55       PYPG     H9X      HAL2     0.900000E-01   1.00800           0
      6819 MEMB     55       PYPG     H9Y      HAL2     0.900000E-01   1.00800           0
      6820 MEMB     55       PYPG     C310     CTL2    -0.180000       12.0110           0
      6821 MEMB     55       PYPG     H10X     HAL2     0.900000E-01   1.00800           0
      6822 MEMB     55       PYPG     H10Y     HAL2     0.900000E-01   1.00800           0
      6823 MEMB     55       PYPG     C311     CTL2    -0.180000       12.0110           0
      6824 MEMB     55       PYPG     H11X     HAL2     0.900000E-01   1.00800           0
      6825 MEMB     55       PYPG     H11Y     HAL2     0.900000E-01   1.00800           0
      6826 MEMB     55       PYPG     C312     CTL2    -0.180000       12.0110           0
      6827 MEMB     55       PYPG     H12X     HAL2     0.900000E-01   1.00800           0
      6828 MEMB     55       PYPG     H12Y     HAL2     0.900000E-01   1.00800           0
      6829 MEMB     55       PYPG     C313     CTL2    -0.180000       12.0110           0
      6830 MEMB     55       PYPG     H13X     HAL2     0.900000E-01   1.00800           0
      6831 MEMB     55       PYPG     H13Y     HAL2     0.900000E-01   1.00800           0
      6832 MEMB     55       PYPG     C314     CTL2    -0.180000       12.0110           0
      6833 MEMB     55       PYPG     H14X     HAL2     0.900000E-01   1.00800           0
      6834 MEMB     55       PYPG     H14Y     HAL2     0.900000E-01   1.00800           0
      6835 MEMB     55       PYPG     C315     CTL2    -0.180000       12.0110           0
      6836 MEMB     55       PYPG     H15X     HAL2     0.900000E-01   1.00800           0
      6837 MEMB     55       PYPG     H15Y     HAL2     0.900000E-01   1.00800           0
      6838 MEMB     55       PYPG     C316     CTL3    -0.270000       12.0110           0
      6839 MEMB     55       PYPG     H16X     HAL3     0.900000E-01   1.00800           0
      6840 MEMB     55       PYPG     H16Y     HAL3     0.900000E-01   1.00800           0
      6841 MEMB     55       PYPG     H16Z     HAL3     0.900000E-01   1.00800           0
      6842 MEMB     56       PMPE     N        NH3L    -0.300000       14.0070           0
      6843 MEMB     56       PMPE     HN1      HCL      0.330000       1.00800           0
      6844 MEMB     56       PMPE     HN2      HCL      0.330000       1.00800           0
      6845 MEMB     56       PMPE     HN3      HCL      0.330000       1.00800           0
      6846 MEMB     56       PMPE     C12      CTL2     0.130000       12.0110           0
      6847 MEMB     56       PMPE     H12A     HAL2     0.900000E-01   1.00800           0
      6848 MEMB     56       PMPE     H12B     HAL2     0.900000E-01   1.00800           0
      6849 MEMB     56       PMPE     C11      CTL2    -0.800000E-01   12.0110           0
      6850 MEMB     56       PMPE     H11A     HAL2     0.900000E-01   1.00800           0
      6851 MEMB     56       PMPE     H11B     HAL2     0.900000E-01   1.00800           0
      6852 MEMB     56       PMPE     P        PL        1.50000       30.9740           0
      6853 MEMB     56       PMPE     O13      O2L     -0.780000       15.9994           0
      6854 MEMB     56       PMPE     O14      O2L     -0.780000       15.9994           0
      6855 MEMB     56       PMPE     O11      OSLP    -0.570000       15.9994           0
      6856 MEMB     56       PMPE     O12      OSLP    -0.570000       15.9994           0
      6857 MEMB     56       PMPE     C1       CTL2    -0.800000E-01   12.0110           0
      6858 MEMB     56       PMPE     HA       HAL2     0.900000E-01   1.00800           0
      6859 MEMB     56       PMPE     HB       HAL2     0.900000E-01   1.00800           0
      6860 MEMB     56       PMPE     C2       CTL1     0.170000       12.0110           0
      6861 MEMB     56       PMPE     HS       HAL1     0.900000E-01   1.00800           0
      6862 MEMB     56       PMPE     O21      OSL     -0.490000       15.9994           0
      6863 MEMB     56       PMPE     C21      CL       0.900000       12.0110           0
      6864 MEMB     56       PMPE     O22      OBL     -0.630000       15.9994           0
      6865 MEMB     56       PMPE     C22      CTL2    -0.220000       12.0110           0
      6866 MEMB     56       PMPE     H2R      HAL2     0.900000E-01   1.00800           0
      6867 MEMB     56       PMPE     H2S      HAL2     0.900000E-01   1.00800           0
      6868 MEMB     56       PMPE     C3       CTL2     0.800000E-01   12.0110           0
      6869 MEMB     56       PMPE     HX       HAL2     0.900000E-01   1.00800           0
      6870 MEMB     56       PMPE     HY       HAL2     0.900000E-01   1.00800           0
      6871 MEMB     56       PMPE     O31      OSL     -0.490000       15.9994           0
      6872 MEMB     56       PMPE     C31      CL       0.900000       12.0110           0
      6873 MEMB     56       PMPE     O32      OBL     -0.630000       15.9994           0
      6874 MEMB     56       PMPE     C32      CTL2    -0.220000       12.0110           0
      6875 MEMB     56       PMPE     H2X      HAL2     0.900000E-01   1.00800           0
      6876 MEMB     56       PMPE     H2Y      HAL2     0.900000E-01   1.00800           0
      6877 MEMB     56       PMPE     C23      CTL2    -0.180000       12.0110           0
      6878 MEMB     56       PMPE     H3R      HAL2     0.900000E-01   1.00800           0
      6879 MEMB     56       PMPE     H3S      HAL2     0.900000E-01   1.00800           0
      6880 MEMB     56       PMPE     C24      CTL2    -0.180000       12.0110           0
      6881 MEMB     56       PMPE     H4R      HAL2     0.900000E-01   1.00800           0
      6882 MEMB     56       PMPE     H4S      HAL2     0.900000E-01   1.00800           0
      6883 MEMB     56       PMPE     C25      CTL2    -0.180000       12.0110           0
      6884 MEMB     56       PMPE     H5R      HAL2     0.900000E-01   1.00800           0
      6885 MEMB     56       PMPE     H5S      HAL2     0.900000E-01   1.00800           0
      6886 MEMB     56       PMPE     C26      CTL2    -0.180000       12.0110           0
      6887 MEMB     56       PMPE     H6R      HAL2     0.900000E-01   1.00800           0
      6888 MEMB     56       PMPE     H6S      HAL2     0.900000E-01   1.00800           0
      6889 MEMB     56       PMPE     C27      CTL2    -0.180000       12.0110           0
      6890 MEMB     56       PMPE     H7R      HAL2     0.900000E-01   1.00800           0
      6891 MEMB     56       PMPE     H7S      HAL2     0.900000E-01   1.00800           0
      6892 MEMB     56       PMPE     C28      CTL2    -0.180000       12.0110           0
      6893 MEMB     56       PMPE     H8R      HAL2     0.900000E-01   1.00800           0
      6894 MEMB     56       PMPE     H8S      HAL2     0.900000E-01   1.00800           0
      6895 MEMB     56       PMPE     C29      CG3RC1  -0.900000E-01   12.0110           0
      6896 MEMB     56       PMPE     H9R      HGA1     0.900000E-01   1.00800           0
      6897 MEMB     56       PMPE     C217     CG3C31  -0.180000       12.0110           0
      6898 MEMB     56       PMPE     H17R     HGA2     0.900000E-01   1.00800           0
      6899 MEMB     56       PMPE     H17S     HGA2     0.900000E-01   1.00800           0
      6900 MEMB     56       PMPE     C210     CG3RC1  -0.900000E-01   12.0110           0
      6901 MEMB     56       PMPE     H10R     HGA1     0.900000E-01   1.00800           0
      6902 MEMB     56       PMPE     C211     CTL2    -0.180000       12.0110           0
      6903 MEMB     56       PMPE     H11R     HAL2     0.900000E-01   1.00800           0
      6904 MEMB     56       PMPE     H11S     HAL2     0.900000E-01   1.00800           0
      6905 MEMB     56       PMPE     C212     CTL2    -0.180000       12.0110           0
      6906 MEMB     56       PMPE     H12R     HAL2     0.900000E-01   1.00800           0
      6907 MEMB     56       PMPE     H12S     HAL2     0.900000E-01   1.00800           0
      6908 MEMB     56       PMPE     C213     CTL2    -0.180000       12.0110           0
      6909 MEMB     56       PMPE     H13R     HAL2     0.900000E-01   1.00800           0
      6910 MEMB     56       PMPE     H13S     HAL2     0.900000E-01   1.00800           0
      6911 MEMB     56       PMPE     C214     CTL2    -0.180000       12.0110           0
      6912 MEMB     56       PMPE     H14R     HAL2     0.900000E-01   1.00800           0
      6913 MEMB     56       PMPE     H14S     HAL2     0.900000E-01   1.00800           0
      6914 MEMB     56       PMPE     C215     CTL2    -0.180000       12.0110           0
      6915 MEMB     56       PMPE     H15R     HAL2     0.900000E-01   1.00800           0
      6916 MEMB     56       PMPE     H15S     HAL2     0.900000E-01   1.00800           0
      6917 MEMB     56       PMPE     C216     CTL3    -0.270000       12.0110           0
      6918 MEMB     56       PMPE     H16R     HAL3     0.900000E-01   1.00800           0
      6919 MEMB     56       PMPE     H16S     HAL3     0.900000E-01   1.00800           0
      6920 MEMB     56       PMPE     H16T     HAL3     0.900000E-01   1.00800           0
      6921 MEMB     56       PMPE     C33      CTL2    -0.180000       12.0110           0
      6922 MEMB     56       PMPE     H3X      HAL2     0.900000E-01   1.00800           0
      6923 MEMB     56       PMPE     H3Y      HAL2     0.900000E-01   1.00800           0
      6924 MEMB     56       PMPE     C34      CTL2    -0.180000       12.0110           0
      6925 MEMB     56       PMPE     H4X      HAL2     0.900000E-01   1.00800           0
      6926 MEMB     56       PMPE     H4Y      HAL2     0.900000E-01   1.00800           0
      6927 MEMB     56       PMPE     C35      CTL2    -0.180000       12.0110           0
      6928 MEMB     56       PMPE     H5X      HAL2     0.900000E-01   1.00800           0
      6929 MEMB     56       PMPE     H5Y      HAL2     0.900000E-01   1.00800           0
      6930 MEMB     56       PMPE     C36      CTL2    -0.180000       12.0110           0
      6931 MEMB     56       PMPE     H6X      HAL2     0.900000E-01   1.00800           0
      6932 MEMB     56       PMPE     H6Y      HAL2     0.900000E-01   1.00800           0
      6933 MEMB     56       PMPE     C37      CTL2    -0.180000       12.0110           0
      6934 MEMB     56       PMPE     H7X      HAL2     0.900000E-01   1.00800           0
      6935 MEMB     56       PMPE     H7Y      HAL2     0.900000E-01   1.00800           0
      6936 MEMB     56       PMPE     C38      CTL2    -0.180000       12.0110           0
      6937 MEMB     56       PMPE     H8X      HAL2     0.900000E-01   1.00800           0
      6938 MEMB     56       PMPE     H8Y      HAL2     0.900000E-01   1.00800           0
      6939 MEMB     56       PMPE     C39      CTL2    -0.180000       12.0110           0
      6940 MEMB     56       PMPE     H9X      HAL2     0.900000E-01   1.00800           0
      6941 MEMB     56       PMPE     H9Y      HAL2     0.900000E-01   1.00800           0
      6942 MEMB     56       PMPE     C310     CTL2    -0.180000       12.0110           0
      6943 MEMB     56       PMPE     H10X     HAL2     0.900000E-01   1.00800           0
      6944 MEMB     56       PMPE     H10Y     HAL2     0.900000E-01   1.00800           0
      6945 MEMB     56       PMPE     C311     CTL2    -0.180000       12.0110           0
      6946 MEMB     56       PMPE     H11X     HAL2     0.900000E-01   1.00800           0
      6947 MEMB     56       PMPE     H11Y     HAL2     0.900000E-01   1.00800           0
      6948 MEMB     56       PMPE     C312     CTL2    -0.180000       12.0110           0
      6949 MEMB     56       PMPE     H12X     HAL2     0.900000E-01   1.00800           0
      6950 MEMB     56       PMPE     H12Y     HAL2     0.900000E-01   1.00800           0
      6951 MEMB     56       PMPE     C313     CTL2    -0.180000       12.0110           0
      6952 MEMB     56       PMPE     H13X     HAL2     0.900000E-01   1.00800           0
      6953 MEMB     56       PMPE     H13Y     HAL2     0.900000E-01   1.00800           0
      6954 MEMB     56       PMPE     C314     CTL2    -0.180000       12.0110           0
      6955 MEMB     56       PMPE     H14X     HAL2     0.900000E-01   1.00800           0
      6956 MEMB     56       PMPE     H14Y     HAL2     0.900000E-01   1.00800           0
      6957 MEMB     56       PMPE     C315     CTL2    -0.180000       12.0110           0
      6958 MEMB     56       PMPE     H15X     HAL2     0.900000E-01   1.00800           0
      6959 MEMB     56       PMPE     H15Y     HAL2     0.900000E-01   1.00800           0
      6960 MEMB     56       PMPE     C316     CTL3    -0.270000       12.0110           0
      6961 MEMB     56       PMPE     H16X     HAL3     0.900000E-01   1.00800           0
      6962 MEMB     56       PMPE     H16Y     HAL3     0.900000E-01   1.00800           0
      6963 MEMB     56       PMPE     H16Z     HAL3     0.900000E-01   1.00800           0
      6964 MEMB     57       QMPE     N        NH3L    -0.300000       14.0070           0
      6965 MEMB     57       QMPE     HN1      HCL      0.330000       1.00800           0
      6966 MEMB     57       QMPE     HN2      HCL      0.330000       1.00800           0
      6967 MEMB     57       QMPE     HN3      HCL      0.330000       1.00800           0
      6968 MEMB     57       QMPE     C12      CTL2     0.130000       12.0110           0
      6969 MEMB     57       QMPE     H12A     HAL2     0.900000E-01   1.00800           0
      6970 MEMB     57       QMPE     H12B     HAL2     0.900000E-01   1.00800           0
      6971 MEMB     57       QMPE     C11      CTL2    -0.800000E-01   12.0110           0
      6972 MEMB     57       QMPE     H11A     HAL2     0.900000E-01   1.00800           0
      6973 MEMB     57       QMPE     H11B     HAL2     0.900000E-01   1.00800           0
      6974 MEMB     57       QMPE     P        PL        1.50000       30.9740           0
      6975 MEMB     57       QMPE     O13      O2L     -0.780000       15.9994           0
      6976 MEMB     57       QMPE     O14      O2L     -0.780000       15.9994           0
      6977 MEMB     57       QMPE     O11      OSLP    -0.570000       15.9994           0
      6978 MEMB     57       QMPE     O12      OSLP    -0.570000       15.9994           0
      6979 MEMB     57       QMPE     C1       CTL2    -0.800000E-01   12.0110           0
      6980 MEMB     57       QMPE     HA       HAL2     0.900000E-01   1.00800           0
      6981 MEMB     57       QMPE     HB       HAL2     0.900000E-01   1.00800           0
      6982 MEMB     57       QMPE     C2       CTL1     0.170000       12.0110           0
      6983 MEMB     57       QMPE     HS       HAL1     0.900000E-01   1.00800           0
      6984 MEMB     57       QMPE     O21      OSL     -0.490000       15.9994           0
      6985 MEMB     57       QMPE     C21      CL       0.900000       12.0110           0
      6986 MEMB     57       QMPE     O22      OBL     -0.630000       15.9994           0
      6987 MEMB     57       QMPE     C22      CTL2    -0.220000       12.0110           0
      6988 MEMB     57       QMPE     H2R      HAL2     0.900000E-01   1.00800           0
      6989 MEMB     57       QMPE     H2S      HAL2     0.900000E-01   1.00800           0
      6990 MEMB     57       QMPE     C3       CTL2     0.800000E-01   12.0110           0
      6991 MEMB     57       QMPE     HX       HAL2     0.900000E-01   1.00800           0
      6992 MEMB     57       QMPE     HY       HAL2     0.900000E-01   1.00800           0
      6993 MEMB     57       QMPE     O31      OSL     -0.490000       15.9994           0
      6994 MEMB     57       QMPE     C31      CL       0.900000       12.0110           0
      6995 MEMB     57       QMPE     O32      OBL     -0.630000       15.9994           0
      6996 MEMB     57       QMPE     C32      CTL2    -0.220000       12.0110           0
      6997 MEMB     57       QMPE     H2X      HAL2     0.900000E-01   1.00800           0
      6998 MEMB     57       QMPE     H2Y      HAL2     0.900000E-01   1.00800           0
      6999 MEMB     57       QMPE     C23      CTL2    -0.180000       12.0110           0
      7000 MEMB     57       QMPE     H3R      HAL2     0.900000E-01   1.00800           0
      7001 MEMB     57       QMPE     H3S      HAL2     0.900000E-01   1.00800           0
      7002 MEMB     57       QMPE     C24      CTL2    -0.180000       12.0110           0
      7003 MEMB     57       QMPE     H4R      HAL2     0.900000E-01   1.00800           0
      7004 MEMB     57       QMPE     H4S      HAL2     0.900000E-01   1.00800           0
      7005 MEMB     57       QMPE     C25      CTL2    -0.180000       12.0110           0
      7006 MEMB     57       QMPE     H5R      HAL2     0.900000E-01   1.00800           0
      7007 MEMB     57       QMPE     H5S      HAL2     0.900000E-01   1.00800           0
      7008 MEMB     57       QMPE     C26      CTL2    -0.180000       12.0110           0
      7009 MEMB     57       QMPE     H6R      HAL2     0.900000E-01   1.00800           0
      7010 MEMB     57       QMPE     H6S      HAL2     0.900000E-01   1.00800           0
      7011 MEMB     57       QMPE     C27      CTL2    -0.180000       12.0110           0
      7012 MEMB     57       QMPE     H7R      HAL2     0.900000E-01   1.00800           0
      7013 MEMB     57       QMPE     H7S      HAL2     0.900000E-01   1.00800           0
      7014 MEMB     57       QMPE     C28      CTL2    -0.180000       12.0110           0
      7015 MEMB     57       QMPE     H8R      HAL2     0.900000E-01   1.00800           0
      7016 MEMB     57       QMPE     H8S      HAL2     0.900000E-01   1.00800           0
      7017 MEMB     57       QMPE     C29      CG3RC1  -0.900000E-01   12.0110           0
      7018 MEMB     57       QMPE     H9R      HGA1     0.900000E-01   1.00800           0
      7019 MEMB     57       QMPE     C217     CG3C31  -0.180000       12.0110           0
      7020 MEMB     57       QMPE     H17R     HGA2     0.900000E-01   1.00800           0
      7021 MEMB     57       QMPE     H17S     HGA2     0.900000E-01   1.00800           0
      7022 MEMB     57       QMPE     C210     CG3RC1  -0.900000E-01   12.0110           0
      7023 MEMB     57       QMPE     H10R     HGA1     0.900000E-01   1.00800           0
      7024 MEMB     57       QMPE     C211     CTL2    -0.180000       12.0110           0
      7025 MEMB     57       QMPE     H11R     HAL2     0.900000E-01   1.00800           0
      7026 MEMB     57       QMPE     H11S     HAL2     0.900000E-01   1.00800           0
      7027 MEMB     57       QMPE     C212     CTL2    -0.180000       12.0110           0
      7028 MEMB     57       QMPE     H12R     HAL2     0.900000E-01   1.00800           0
      7029 MEMB     57       QMPE     H12S     HAL2     0.900000E-01   1.00800           0
      7030 MEMB     57       QMPE     C213     CTL2    -0.180000       12.0110           0
      7031 MEMB     57       QMPE     H13R     HAL2     0.900000E-01   1.00800           0
      7032 MEMB     57       QMPE     H13S     HAL2     0.900000E-01   1.00800           0
      7033 MEMB     57       QMPE     C214     CTL2    -0.180000       12.0110           0
      7034 MEMB     57       QMPE     H14R     HAL2     0.900000E-01   1.00800           0
      7035 MEMB     57       QMPE     H14S     HAL2     0.900000E-01   1.00800           0
      7036 MEMB     57       QMPE     C215     CTL2    -0.180000       12.0110           0
      7037 MEMB     57       QMPE     H15R     HAL2     0.900000E-01   1.00800           0
      7038 MEMB     57       QMPE     H15S     HAL2     0.900000E-01   1.00800           0
      7039 MEMB     57       QMPE     C216     CTL3    -0.270000       12.0110           0
      7040 MEMB     57       QMPE     H16R     HAL3     0.900000E-01   1.00800           0
      7041 MEMB     57       QMPE     H16S     HAL3     0.900000E-01   1.00800           0
      7042 MEMB     57       QMPE     H16T     HAL3     0.900000E-01   1.00800           0
      7043 MEMB     57       QMPE     C33      CTL2    -0.180000       12.0110           0
      7044 MEMB     57       QMPE     H3X      HAL2     0.900000E-01   1.00800           0
      7045 MEMB     57       QMPE     H3Y      HAL2     0.900000E-01   1.00800           0
      7046 MEMB     57       QMPE     C34      CTL2    -0.180000       12.0110           0
      7047 MEMB     57       QMPE     H4X      HAL2     0.900000E-01   1.00800           0
      7048 MEMB     57       QMPE     H4Y      HAL2     0.900000E-01   1.00800           0
      7049 MEMB     57       QMPE     C35      CTL2    -0.180000       12.0110           0
      7050 MEMB     57       QMPE     H5X      HAL2     0.900000E-01   1.00800           0
      7051 MEMB     57       QMPE     H5Y      HAL2     0.900000E-01   1.00800           0
      7052 MEMB     57       QMPE     C36      CTL2    -0.180000       12.0110           0
      7053 MEMB     57       QMPE     H6X      HAL2     0.900000E-01   1.00800           0
      7054 MEMB     57       QMPE     H6Y      HAL2     0.900000E-01   1.00800           0
      7055 MEMB     57       QMPE     C37      CTL2    -0.180000       12.0110           0
      7056 MEMB     57       QMPE     H7X      HAL2     0.900000E-01   1.00800           0
      7057 MEMB     57       QMPE     H7Y      HAL2     0.900000E-01   1.00800           0
      7058 MEMB     57       QMPE     C38      CTL2    -0.180000       12.0110           0
      7059 MEMB     57       QMPE     H8X      HAL2     0.900000E-01   1.00800           0
      7060 MEMB     57       QMPE     H8Y      HAL2     0.900000E-01   1.00800           0
      7061 MEMB     57       QMPE     C39      CTL2    -0.180000       12.0110           0
      7062 MEMB     57       QMPE     H9X      HAL2     0.900000E-01   1.00800           0
      7063 MEMB     57       QMPE     H9Y      HAL2     0.900000E-01   1.00800           0
      7064 MEMB     57       QMPE     C310     CTL2    -0.180000       12.0110           0
      7065 MEMB     57       QMPE     H10X     HAL2     0.900000E-01   1.00800           0
      7066 MEMB     57       QMPE     H10Y     HAL2     0.900000E-01   1.00800           0
      7067 MEMB     57       QMPE     C311     CTL2    -0.180000       12.0110           0
      7068 MEMB     57       QMPE     H11X     HAL2     0.900000E-01   1.00800           0
      7069 MEMB     57       QMPE     H11Y     HAL2     0.900000E-01   1.00800           0
      7070 MEMB     57       QMPE     C312     CTL2    -0.180000       12.0110           0
      7071 MEMB     57       QMPE     H12X     HAL2     0.900000E-01   1.00800           0
      7072 MEMB     57       QMPE     H12Y     HAL2     0.900000E-01   1.00800           0
      7073 MEMB     57       QMPE     C313     CTL2    -0.180000       12.0110           0
      7074 MEMB     57       QMPE     H13X     HAL2     0.900000E-01   1.00800           0
      7075 MEMB     57       QMPE     H13Y     HAL2     0.900000E-01   1.00800           0
      7076 MEMB     57       QMPE     C314     CTL2    -0.180000       12.0110           0
      7077 MEMB     57       QMPE     H14X     HAL2     0.900000E-01   1.00800           0
      7078 MEMB     57       QMPE     H14Y     HAL2     0.900000E-01   1.00800           0
      7079 MEMB     57       QMPE     C315     CTL3    -0.270000       12.0110           0
      7080 MEMB     57       QMPE     H15X     HAL3     0.900000E-01   1.00800           0
      7081 MEMB     57       QMPE     H15Y     HAL3     0.900000E-01   1.00800           0
      7082 MEMB     57       QMPE     H15Z     HAL3     0.900000E-01   1.00800           0
      7083 MEMB     58       QMPE     N        NH3L    -0.300000       14.0070           0
      7084 MEMB     58       QMPE     HN1      HCL      0.330000       1.00800           0
      7085 MEMB     58       QMPE     HN2      HCL      0.330000       1.00800           0
      7086 MEMB     58       QMPE     HN3      HCL      0.330000       1.00800           0
      7087 MEMB     58       QMPE     C12      CTL2     0.130000       12.0110           0
      7088 MEMB     58       QMPE     H12A     HAL2     0.900000E-01   1.00800           0
      7089 MEMB     58       QMPE     H12B     HAL2     0.900000E-01   1.00800           0
      7090 MEMB     58       QMPE     C11      CTL2    -0.800000E-01   12.0110           0
      7091 MEMB     58       QMPE     H11A     HAL2     0.900000E-01   1.00800           0
      7092 MEMB     58       QMPE     H11B     HAL2     0.900000E-01   1.00800           0
      7093 MEMB     58       QMPE     P        PL        1.50000       30.9740           0
      7094 MEMB     58       QMPE     O13      O2L     -0.780000       15.9994           0
      7095 MEMB     58       QMPE     O14      O2L     -0.780000       15.9994           0
      7096 MEMB     58       QMPE     O11      OSLP    -0.570000       15.9994           0
      7097 MEMB     58       QMPE     O12      OSLP    -0.570000       15.9994           0
      7098 MEMB     58       QMPE     C1       CTL2    -0.800000E-01   12.0110           0
      7099 MEMB     58       QMPE     HA       HAL2     0.900000E-01   1.00800           0
      7100 MEMB     58       QMPE     HB       HAL2     0.900000E-01   1.00800           0
      7101 MEMB     58       QMPE     C2       CTL1     0.170000       12.0110           0
      7102 MEMB     58       QMPE     HS       HAL1     0.900000E-01   1.00800           0
      7103 MEMB     58       QMPE     O21      OSL     -0.490000       15.9994           0
      7104 MEMB     58       QMPE     C21      CL       0.900000       12.0110           0
      7105 MEMB     58       QMPE     O22      OBL     -0.630000       15.9994           0
      7106 MEMB     58       QMPE     C22      CTL2    -0.220000       12.0110           0
      7107 MEMB     58       QMPE     H2R      HAL2     0.900000E-01   1.00800           0
      7108 MEMB     58       QMPE     H2S      HAL2     0.900000E-01   1.00800           0
      7109 MEMB     58       QMPE     C3       CTL2     0.800000E-01   12.0110           0
      7110 MEMB     58       QMPE     HX       HAL2     0.900000E-01   1.00800           0
      7111 MEMB     58       QMPE     HY       HAL2     0.900000E-01   1.00800           0
      7112 MEMB     58       QMPE     O31      OSL     -0.490000       15.9994           0
      7113 MEMB     58       QMPE     C31      CL       0.900000       12.0110           0
      7114 MEMB     58       QMPE     O32      OBL     -0.630000       15.9994           0
      7115 MEMB     58       QMPE     C32      CTL2    -0.220000       12.0110           0
      7116 MEMB     58       QMPE     H2X      HAL2     0.900000E-01   1.00800           0
      7117 MEMB     58       QMPE     H2Y      HAL2     0.900000E-01   1.00800           0
      7118 MEMB     58       QMPE     C23      CTL2    -0.180000       12.0110           0
      7119 MEMB     58       QMPE     H3R      HAL2     0.900000E-01   1.00800           0
      7120 MEMB     58       QMPE     H3S      HAL2     0.900000E-01   1.00800           0
      7121 MEMB     58       QMPE     C24      CTL2    -0.180000       12.0110           0
      7122 MEMB     58       QMPE     H4R      HAL2     0.900000E-01   1.00800           0
      7123 MEMB     58       QMPE     H4S      HAL2     0.900000E-01   1.00800           0
      7124 MEMB     58       QMPE     C25      CTL2    -0.180000       12.0110           0
      7125 MEMB     58       QMPE     H5R      HAL2     0.900000E-01   1.00800           0
      7126 MEMB     58       QMPE     H5S      HAL2     0.900000E-01   1.00800           0
      7127 MEMB     58       QMPE     C26      CTL2    -0.180000       12.0110           0
      7128 MEMB     58       QMPE     H6R      HAL2     0.900000E-01   1.00800           0
      7129 MEMB     58       QMPE     H6S      HAL2     0.900000E-01   1.00800           0
      7130 MEMB     58       QMPE     C27      CTL2    -0.180000       12.0110           0
      7131 MEMB     58       QMPE     H7R      HAL2     0.900000E-01   1.00800           0
      7132 MEMB     58       QMPE     H7S      HAL2     0.900000E-01   1.00800           0
      7133 MEMB     58       QMPE     C28      CTL2    -0.180000       12.0110           0
      7134 MEMB     58       QMPE     H8R      HAL2     0.900000E-01   1.00800           0
      7135 MEMB     58       QMPE     H8S      HAL2     0.900000E-01   1.00800           0
      7136 MEMB     58       QMPE     C29      CG3RC1  -0.900000E-01   12.0110           0
      7137 MEMB     58       QMPE     H9R      HGA1     0.900000E-01   1.00800           0
      7138 MEMB     58       QMPE     C217     CG3C31  -0.180000       12.0110           0
      7139 MEMB     58       QMPE     H17R     HGA2     0.900000E-01   1.00800           0
      7140 MEMB     58       QMPE     H17S     HGA2     0.900000E-01   1.00800           0
      7141 MEMB     58       QMPE     C210     CG3RC1  -0.900000E-01   12.0110           0
      7142 MEMB     58       QMPE     H10R     HGA1     0.900000E-01   1.00800           0
      7143 MEMB     58       QMPE     C211     CTL2    -0.180000       12.0110           0
      7144 MEMB     58       QMPE     H11R     HAL2     0.900000E-01   1.00800           0
      7145 MEMB     58       QMPE     H11S     HAL2     0.900000E-01   1.00800           0
      7146 MEMB     58       QMPE     C212     CTL2    -0.180000       12.0110           0
      7147 MEMB     58       QMPE     H12R     HAL2     0.900000E-01   1.00800           0
      7148 MEMB     58       QMPE     H12S     HAL2     0.900000E-01   1.00800           0
      7149 MEMB     58       QMPE     C213     CTL2    -0.180000       12.0110           0
      7150 MEMB     58       QMPE     H13R     HAL2     0.900000E-01   1.00800           0
      7151 MEMB     58       QMPE     H13S     HAL2     0.900000E-01   1.00800           0
      7152 MEMB     58       QMPE     C214     CTL2    -0.180000       12.0110           0
      7153 MEMB     58       QMPE     H14R     HAL2     0.900000E-01   1.00800           0
      7154 MEMB     58       QMPE     H14S     HAL2     0.900000E-01   1.00800           0
      7155 MEMB     58       QMPE     C215     CTL2    -0.180000       12.0110           0
      7156 MEMB     58       QMPE     H15R     HAL2     0.900000E-01   1.00800           0
      7157 MEMB     58       QMPE     H15S     HAL2     0.900000E-01   1.00800           0
      7158 MEMB     58       QMPE     C216     CTL3    -0.270000       12.0110           0
      7159 MEMB     58       QMPE     H16R     HAL3     0.900000E-01   1.00800           0
      7160 MEMB     58       QMPE     H16S     HAL3     0.900000E-01   1.00800           0
      7161 MEMB     58       QMPE     H16T     HAL3     0.900000E-01   1.00800           0
      7162 MEMB     58       QMPE     C33      CTL2    -0.180000       12.0110           0
      7163 MEMB     58       QMPE     H3X      HAL2     0.900000E-01   1.00800           0
      7164 MEMB     58       QMPE     H3Y      HAL2     0.900000E-01   1.00800           0
      7165 MEMB     58       QMPE     C34      CTL2    -0.180000       12.0110           0
      7166 MEMB     58       QMPE     H4X      HAL2     0.900000E-01   1.00800           0
      7167 MEMB     58       QMPE     H4Y      HAL2     0.900000E-01   1.00800           0
      7168 MEMB     58       QMPE     C35      CTL2    -0.180000       12.0110           0
      7169 MEMB     58       QMPE     H5X      HAL2     0.900000E-01   1.00800           0
      7170 MEMB     58       QMPE     H5Y      HAL2     0.900000E-01   1.00800           0
      7171 MEMB     58       QMPE     C36      CTL2    -0.180000       12.0110           0
      7172 MEMB     58       QMPE     H6X      HAL2     0.900000E-01   1.00800           0
      7173 MEMB     58       QMPE     H6Y      HAL2     0.900000E-01   1.00800           0
      7174 MEMB     58       QMPE     C37      CTL2    -0.180000       12.0110           0
      7175 MEMB     58       QMPE     H7X      HAL2     0.900000E-01   1.00800           0
      7176 MEMB     58       QMPE     H7Y      HAL2     0.900000E-01   1.00800           0
      7177 MEMB     58       QMPE     C38      CTL2    -0.180000       12.0110           0
      7178 MEMB     58       QMPE     H8X      HAL2     0.900000E-01   1.00800           0
      7179 MEMB     58       QMPE     H8Y      HAL2     0.900000E-01   1.00800           0
      7180 MEMB     58       QMPE     C39      CTL2    -0.180000       12.0110           0
      7181 MEMB     58       QMPE     H9X      HAL2     0.900000E-01   1.00800           0
      7182 MEMB     58       QMPE     H9Y      HAL2     0.900000E-01   1.00800           0
      7183 MEMB     58       QMPE     C310     CTL2    -0.180000       12.0110           0
      7184 MEMB     58       QMPE     H10X     HAL2     0.900000E-01   1.00800           0
      7185 MEMB     58       QMPE     H10Y     HAL2     0.900000E-01   1.00800           0
      7186 MEMB     58       QMPE     C311     CTL2    -0.180000       12.0110           0
      7187 MEMB     58       QMPE     H11X     HAL2     0.900000E-01   1.00800           0
      7188 MEMB     58       QMPE     H11Y     HAL2     0.900000E-01   1.00800           0
      7189 MEMB     58       QMPE     C312     CTL2    -0.180000       12.0110           0
      7190 MEMB     58       QMPE     H12X     HAL2     0.900000E-01   1.00800           0
      7191 MEMB     58       QMPE     H12Y     HAL2     0.900000E-01   1.00800           0
      7192 MEMB     58       QMPE     C313     CTL2    -0.180000       12.0110           0
      7193 MEMB     58       QMPE     H13X     HAL2     0.900000E-01   1.00800           0
      7194 MEMB     58       QMPE     H13Y     HAL2     0.900000E-01   1.00800           0
      7195 MEMB     58       QMPE     C314     CTL2    -0.180000       12.0110           0
      7196 MEMB     58       QMPE     H14X     HAL2     0.900000E-01   1.00800           0
      7197 MEMB     58       QMPE     H14Y     HAL2     0.900000E-01   1.00800           0
      7198 MEMB     58       QMPE     C315     CTL3    -0.270000       12.0110           0
      7199 MEMB     58       QMPE     H15X     HAL3     0.900000E-01   1.00800           0
      7200 MEMB     58       QMPE     H15Y     HAL3     0.900000E-01   1.00800           0
      7201 MEMB     58       QMPE     H15Z     HAL3     0.900000E-01   1.00800           0
      7202 MEMB     59       QMPE     N        NH3L    -0.300000       14.0070           0
      7203 MEMB     59       QMPE     HN1      HCL      0.330000       1.00800           0
      7204 MEMB     59       QMPE     HN2      HCL      0.330000       1.00800           0
      7205 MEMB     59       QMPE     HN3      HCL      0.330000       1.00800           0
      7206 MEMB     59       QMPE     C12      CTL2     0.130000       12.0110           0
      7207 MEMB     59       QMPE     H12A     HAL2     0.900000E-01   1.00800           0
      7208 MEMB     59       QMPE     H12B     HAL2     0.900000E-01   1.00800           0
      7209 MEMB     59       QMPE     C11      CTL2    -0.800000E-01   12.0110           0
      7210 MEMB     59       QMPE     H11A     HAL2     0.900000E-01   1.00800           0
      7211 MEMB     59       QMPE     H11B     HAL2     0.900000E-01   1.00800           0
      7212 MEMB     59       QMPE     P        PL        1.50000       30.9740           0
      7213 MEMB     59       QMPE     O13      O2L     -0.780000       15.9994           0
      7214 MEMB     59       QMPE     O14      O2L     -0.780000       15.9994           0
      7215 MEMB     59       QMPE     O11      OSLP    -0.570000       15.9994           0
      7216 MEMB     59       QMPE     O12      OSLP    -0.570000       15.9994           0
      7217 MEMB     59       QMPE     C1       CTL2    -0.800000E-01   12.0110           0
      7218 MEMB     59       QMPE     HA       HAL2     0.900000E-01   1.00800           0
      7219 MEMB     59       QMPE     HB       HAL2     0.900000E-01   1.00800           0
      7220 MEMB     59       QMPE     C2       CTL1     0.170000       12.0110           0
      7221 MEMB     59       QMPE     HS       HAL1     0.900000E-01   1.00800           0
      7222 MEMB     59       QMPE     O21      OSL     -0.490000       15.9994           0
      7223 MEMB     59       QMPE     C21      CL       0.900000       12.0110           0
      7224 MEMB     59       QMPE     O22      OBL     -0.630000       15.9994           0
      7225 MEMB     59       QMPE     C22      CTL2    -0.220000       12.0110           0
      7226 MEMB     59       QMPE     H2R      HAL2     0.900000E-01   1.00800           0
      7227 MEMB     59       QMPE     H2S      HAL2     0.900000E-01   1.00800           0
      7228 MEMB     59       QMPE     C3       CTL2     0.800000E-01   12.0110           0
      7229 MEMB     59       QMPE     HX       HAL2     0.900000E-01   1.00800           0
      7230 MEMB     59       QMPE     HY       HAL2     0.900000E-01   1.00800           0
      7231 MEMB     59       QMPE     O31      OSL     -0.490000       15.9994           0
      7232 MEMB     59       QMPE     C31      CL       0.900000       12.0110           0
      7233 MEMB     59       QMPE     O32      OBL     -0.630000       15.9994           0
      7234 MEMB     59       QMPE     C32      CTL2    -0.220000       12.0110           0
      7235 MEMB     59       QMPE     H2X      HAL2     0.900000E-01   1.00800           0
      7236 MEMB     59       QMPE     H2Y      HAL2     0.900000E-01   1.00800           0
      7237 MEMB     59       QMPE     C23      CTL2    -0.180000       12.0110           0
      7238 MEMB     59       QMPE     H3R      HAL2     0.900000E-01   1.00800           0
      7239 MEMB     59       QMPE     H3S      HAL2     0.900000E-01   1.00800           0
      7240 MEMB     59       QMPE     C24      CTL2    -0.180000       12.0110           0
      7241 MEMB     59       QMPE     H4R      HAL2     0.900000E-01   1.00800           0
      7242 MEMB     59       QMPE     H4S      HAL2     0.900000E-01   1.00800           0
      7243 MEMB     59       QMPE     C25      CTL2    -0.180000       12.0110           0
      7244 MEMB     59       QMPE     H5R      HAL2     0.900000E-01   1.00800           0
      7245 MEMB     59       QMPE     H5S      HAL2     0.900000E-01   1.00800           0
      7246 MEMB     59       QMPE     C26      CTL2    -0.180000       12.0110           0
      7247 MEMB     59       QMPE     H6R      HAL2     0.900000E-01   1.00800           0
      7248 MEMB     59       QMPE     H6S      HAL2     0.900000E-01   1.00800           0
      7249 MEMB     59       QMPE     C27      CTL2    -0.180000       12.0110           0
      7250 MEMB     59       QMPE     H7R      HAL2     0.900000E-01   1.00800           0
      7251 MEMB     59       QMPE     H7S      HAL2     0.900000E-01   1.00800           0
      7252 MEMB     59       QMPE     C28      CTL2    -0.180000       12.0110           0
      7253 MEMB     59       QMPE     H8R      HAL2     0.900000E-01   1.00800           0
      7254 MEMB     59       QMPE     H8S      HAL2     0.900000E-01   1.00800           0
      7255 MEMB     59       QMPE     C29      CG3RC1  -0.900000E-01   12.0110           0
      7256 MEMB     59       QMPE     H9R      HGA1     0.900000E-01   1.00800           0
      7257 MEMB     59       QMPE     C217     CG3C31  -0.180000       12.0110           0
      7258 MEMB     59       QMPE     H17R     HGA2     0.900000E-01   1.00800           0
      7259 MEMB     59       QMPE     H17S     HGA2     0.900000E-01   1.00800           0
      7260 MEMB     59       QMPE     C210     CG3RC1  -0.900000E-01   12.0110           0
      7261 MEMB     59       QMPE     H10R     HGA1     0.900000E-01   1.00800           0
      7262 MEMB     59       QMPE     C211     CTL2    -0.180000       12.0110           0
      7263 MEMB     59       QMPE     H11R     HAL2     0.900000E-01   1.00800           0
      7264 MEMB     59       QMPE     H11S     HAL2     0.900000E-01   1.00800           0
      7265 MEMB     59       QMPE     C212     CTL2    -0.180000       12.0110           0
      7266 MEMB     59       QMPE     H12R     HAL2     0.900000E-01   1.00800           0
      7267 MEMB     59       QMPE     H12S     HAL2     0.900000E-01   1.00800           0
      7268 MEMB     59       QMPE     C213     CTL2    -0.180000       12.0110           0
      7269 MEMB     59       QMPE     H13R     HAL2     0.900000E-01   1.00800           0
      7270 MEMB     59       QMPE     H13S     HAL2     0.900000E-01   1.00800           0
      7271 MEMB     59       QMPE     C214     CTL2    -0.180000       12.0110           0
      7272 MEMB     59       QMPE     H14R     HAL2     0.900000E-01   1.00800           0
      7273 MEMB     59       QMPE     H14S     HAL2     0.900000E-01   1.00800           0
      7274 MEMB     59       QMPE     C215     CTL2    -0.180000       12.0110           0
      7275 MEMB     59       QMPE     H15R     HAL2     0.900000E-01   1.00800           0
      7276 MEMB     59       QMPE     H15S     HAL2     0.900000E-01   1.00800           0
      7277 MEMB     59       QMPE     C216     CTL3    -0.270000       12.0110           0
      7278 MEMB     59       QMPE     H16R     HAL3     0.900000E-01   1.00800           0
      7279 MEMB     59       QMPE     H16S     HAL3     0.900000E-01   1.00800           0
      7280 MEMB     59       QMPE     H16T     HAL3     0.900000E-01   1.00800           0
      7281 MEMB     59       QMPE     C33      CTL2    -0.180000       12.0110           0
      7282 MEMB     59       QMPE     H3X      HAL2     0.900000E-01   1.00800           0
      7283 MEMB     59       QMPE     H3Y      HAL2     0.900000E-01   1.00800           0
      7284 MEMB     59       QMPE     C34      CTL2    -0.180000       12.0110           0
      7285 MEMB     59       QMPE     H4X      HAL2     0.900000E-01   1.00800           0
      7286 MEMB     59       QMPE     H4Y      HAL2     0.900000E-01   1.00800           0
      7287 MEMB     59       QMPE     C35      CTL2    -0.180000       12.0110           0
      7288 MEMB     59       QMPE     H5X      HAL2     0.900000E-01   1.00800           0
      7289 MEMB     59       QMPE     H5Y      HAL2     0.900000E-01   1.00800           0
      7290 MEMB     59       QMPE     C36      CTL2    -0.180000       12.0110           0
      7291 MEMB     59       QMPE     H6X      HAL2     0.900000E-01   1.00800           0
      7292 MEMB     59       QMPE     H6Y      HAL2     0.900000E-01   1.00800           0
      7293 MEMB     59       QMPE     C37      CTL2    -0.180000       12.0110           0
      7294 MEMB     59       QMPE     H7X      HAL2     0.900000E-01   1.00800           0
      7295 MEMB     59       QMPE     H7Y      HAL2     0.900000E-01   1.00800           0
      7296 MEMB     59       QMPE     C38      CTL2    -0.180000       12.0110           0
      7297 MEMB     59       QMPE     H8X      HAL2     0.900000E-01   1.00800           0
      7298 MEMB     59       QMPE     H8Y      HAL2     0.900000E-01   1.00800           0
      7299 MEMB     59       QMPE     C39      CTL2    -0.180000       12.0110           0
      7300 MEMB     59       QMPE     H9X      HAL2     0.900000E-01   1.00800           0
      7301 MEMB     59       QMPE     H9Y      HAL2     0.900000E-01   1.00800           0
      7302 MEMB     59       QMPE     C310     CTL2    -0.180000       12.0110           0
      7303 MEMB     59       QMPE     H10X     HAL2     0.900000E-01   1.00800           0
      7304 MEMB     59       QMPE     H10Y     HAL2     0.900000E-01   1.00800           0
      7305 MEMB     59       QMPE     C311     CTL2    -0.180000       12.0110           0
      7306 MEMB     59       QMPE     H11X     HAL2     0.900000E-01   1.00800           0
      7307 MEMB     59       QMPE     H11Y     HAL2     0.900000E-01   1.00800           0
      7308 MEMB     59       QMPE     C312     CTL2    -0.180000       12.0110           0
      7309 MEMB     59       QMPE     H12X     HAL2     0.900000E-01   1.00800           0
      7310 MEMB     59       QMPE     H12Y     HAL2     0.900000E-01   1.00800           0
      7311 MEMB     59       QMPE     C313     CTL2    -0.180000       12.0110           0
      7312 MEMB     59       QMPE     H13X     HAL2     0.900000E-01   1.00800           0
      7313 MEMB     59       QMPE     H13Y     HAL2     0.900000E-01   1.00800           0
      7314 MEMB     59       QMPE     C314     CTL2    -0.180000       12.0110           0
      7315 MEMB     59       QMPE     H14X     HAL2     0.900000E-01   1.00800           0
      7316 MEMB     59       QMPE     H14Y     HAL2     0.900000E-01   1.00800           0
      7317 MEMB     59       QMPE     C315     CTL3    -0.270000       12.0110           0
      7318 MEMB     59       QMPE     H15X     HAL3     0.900000E-01   1.00800           0
      7319 MEMB     59       QMPE     H15Y     HAL3     0.900000E-01   1.00800           0
      7320 MEMB     59       QMPE     H15Z     HAL3     0.900000E-01   1.00800           0
      7321 MEMB     60       POPE     N        NH3L    -0.300000       14.0070           0
      7322 MEMB     60       POPE     HN1      HCL      0.330000       1.00800           0
      7323 MEMB     60       POPE     HN2      HCL      0.330000       1.00800           0
      7324 MEMB     60       POPE     HN3      HCL      0.330000       1.00800           0
      7325 MEMB     60       POPE     C12      CTL2     0.130000       12.0110           0
      7326 MEMB     60       POPE     H12A     HAL2     0.900000E-01   1.00800           0
      7327 MEMB     60       POPE     H12B     HAL2     0.900000E-01   1.00800           0
      7328 MEMB     60       POPE     C11      CTL2    -0.800000E-01   12.0110           0
      7329 MEMB     60       POPE     H11A     HAL2     0.900000E-01   1.00800           0
      7330 MEMB     60       POPE     H11B     HAL2     0.900000E-01   1.00800           0
      7331 MEMB     60       POPE     P        PL        1.50000       30.9740           0
      7332 MEMB     60       POPE     O13      O2L     -0.780000       15.9994           0
      7333 MEMB     60       POPE     O14      O2L     -0.780000       15.9994           0
      7334 MEMB     60       POPE     O11      OSLP    -0.570000       15.9994           0
      7335 MEMB     60       POPE     O12      OSLP    -0.570000       15.9994           0
      7336 MEMB     60       POPE     C1       CTL2    -0.800000E-01   12.0110           0
      7337 MEMB     60       POPE     HA       HAL2     0.900000E-01   1.00800           0
      7338 MEMB     60       POPE     HB       HAL2     0.900000E-01   1.00800           0
      7339 MEMB     60       POPE     C2       CTL1     0.170000       12.0110           0
      7340 MEMB     60       POPE     HS       HAL1     0.900000E-01   1.00800           0
      7341 MEMB     60       POPE     O21      OSL     -0.490000       15.9994           0
      7342 MEMB     60       POPE     C21      CL       0.900000       12.0110           0
      7343 MEMB     60       POPE     O22      OBL     -0.630000       15.9994           0
      7344 MEMB     60       POPE     C22      CTL2    -0.220000       12.0110           0
      7345 MEMB     60       POPE     H2R      HAL2     0.900000E-01   1.00800           0
      7346 MEMB     60       POPE     H2S      HAL2     0.900000E-01   1.00800           0
      7347 MEMB     60       POPE     C3       CTL2     0.800000E-01   12.0110           0
      7348 MEMB     60       POPE     HX       HAL2     0.900000E-01   1.00800           0
      7349 MEMB     60       POPE     HY       HAL2     0.900000E-01   1.00800           0
      7350 MEMB     60       POPE     O31      OSL     -0.490000       15.9994           0
      7351 MEMB     60       POPE     C31      CL       0.900000       12.0110           0
      7352 MEMB     60       POPE     O32      OBL     -0.630000       15.9994           0
      7353 MEMB     60       POPE     C32      CTL2    -0.220000       12.0110           0
      7354 MEMB     60       POPE     H2X      HAL2     0.900000E-01   1.00800           0
      7355 MEMB     60       POPE     H2Y      HAL2     0.900000E-01   1.00800           0
      7356 MEMB     60       POPE     C23      CTL2    -0.180000       12.0110           0
      7357 MEMB     60       POPE     H3R      HAL2     0.900000E-01   1.00800           0
      7358 MEMB     60       POPE     H3S      HAL2     0.900000E-01   1.00800           0
      7359 MEMB     60       POPE     C24      CTL2    -0.180000       12.0110           0
      7360 MEMB     60       POPE     H4R      HAL2     0.900000E-01   1.00800           0
      7361 MEMB     60       POPE     H4S      HAL2     0.900000E-01   1.00800           0
      7362 MEMB     60       POPE     C25      CTL2    -0.180000       12.0110           0
      7363 MEMB     60       POPE     H5R      HAL2     0.900000E-01   1.00800           0
      7364 MEMB     60       POPE     H5S      HAL2     0.900000E-01   1.00800           0
      7365 MEMB     60       POPE     C26      CTL2    -0.180000       12.0110           0
      7366 MEMB     60       POPE     H6R      HAL2     0.900000E-01   1.00800           0
      7367 MEMB     60       POPE     H6S      HAL2     0.900000E-01   1.00800           0
      7368 MEMB     60       POPE     C27      CTL2    -0.180000       12.0110           0
      7369 MEMB     60       POPE     H7R      HAL2     0.900000E-01   1.00800           0
      7370 MEMB     60       POPE     H7S      HAL2     0.900000E-01   1.00800           0
      7371 MEMB     60       POPE     C28      CTL2    -0.180000       12.0110           0
      7372 MEMB     60       POPE     H8R      HAL2     0.900000E-01   1.00800           0
      7373 MEMB     60       POPE     H8S      HAL2     0.900000E-01   1.00800           0
      7374 MEMB     60       POPE     C29      CEL1    -0.150000       12.0110           0
      7375 MEMB     60       POPE     H91      HEL1     0.150000       1.00800           0
      7376 MEMB     60       POPE     C210     CEL1    -0.150000       12.0110           0
      7377 MEMB     60       POPE     H101     HEL1     0.150000       1.00800           0
      7378 MEMB     60       POPE     C211     CTL2    -0.180000       12.0110           0
      7379 MEMB     60       POPE     H11R     HAL2     0.900000E-01   1.00800           0
      7380 MEMB     60       POPE     H11S     HAL2     0.900000E-01   1.00800           0
      7381 MEMB     60       POPE     C212     CTL2    -0.180000       12.0110           0
      7382 MEMB     60       POPE     H12R     HAL2     0.900000E-01   1.00800           0
      7383 MEMB     60       POPE     H12S     HAL2     0.900000E-01   1.00800           0
      7384 MEMB     60       POPE     C213     CTL2    -0.180000       12.0110           0
      7385 MEMB     60       POPE     H13R     HAL2     0.900000E-01   1.00800           0
      7386 MEMB     60       POPE     H13S     HAL2     0.900000E-01   1.00800           0
      7387 MEMB     60       POPE     C214     CTL2    -0.180000       12.0110           0
      7388 MEMB     60       POPE     H14R     HAL2     0.900000E-01   1.00800           0
      7389 MEMB     60       POPE     H14S     HAL2     0.900000E-01   1.00800           0
      7390 MEMB     60       POPE     C215     CTL2    -0.180000       12.0110           0
      7391 MEMB     60       POPE     H15R     HAL2     0.900000E-01   1.00800           0
      7392 MEMB     60       POPE     H15S     HAL2     0.900000E-01   1.00800           0
      7393 MEMB     60       POPE     C216     CTL2    -0.180000       12.0110           0
      7394 MEMB     60       POPE     H16R     HAL2     0.900000E-01   1.00800           0
      7395 MEMB     60       POPE     H16S     HAL2     0.900000E-01   1.00800           0
      7396 MEMB     60       POPE     C217     CTL2    -0.180000       12.0110           0
      7397 MEMB     60       POPE     H17R     HAL2     0.900000E-01   1.00800           0
      7398 MEMB     60       POPE     H17S     HAL2     0.900000E-01   1.00800           0
      7399 MEMB     60       POPE     C218     CTL3    -0.270000       12.0110           0
      7400 MEMB     60       POPE     H18R     HAL3     0.900000E-01   1.00800           0
      7401 MEMB     60       POPE     H18S     HAL3     0.900000E-01   1.00800           0
      7402 MEMB     60       POPE     H18T     HAL3     0.900000E-01   1.00800           0
      7403 MEMB     60       POPE     C33      CTL2    -0.180000       12.0110           0
      7404 MEMB     60       POPE     H3X      HAL2     0.900000E-01   1.00800           0
      7405 MEMB     60       POPE     H3Y      HAL2     0.900000E-01   1.00800           0
      7406 MEMB     60       POPE     C34      CTL2    -0.180000       12.0110           0
      7407 MEMB     60       POPE     H4X      HAL2     0.900000E-01   1.00800           0
      7408 MEMB     60       POPE     H4Y      HAL2     0.900000E-01   1.00800           0
      7409 MEMB     60       POPE     C35      CTL2    -0.180000       12.0110           0
      7410 MEMB     60       POPE     H5X      HAL2     0.900000E-01   1.00800           0
      7411 MEMB     60       POPE     H5Y      HAL2     0.900000E-01   1.00800           0
      7412 MEMB     60       POPE     C36      CTL2    -0.180000       12.0110           0
      7413 MEMB     60       POPE     H6X      HAL2     0.900000E-01   1.00800           0
      7414 MEMB     60       POPE     H6Y      HAL2     0.900000E-01   1.00800           0
      7415 MEMB     60       POPE     C37      CTL2    -0.180000       12.0110           0
      7416 MEMB     60       POPE     H7X      HAL2     0.900000E-01   1.00800           0
      7417 MEMB     60       POPE     H7Y      HAL2     0.900000E-01   1.00800           0
      7418 MEMB     60       POPE     C38      CTL2    -0.180000       12.0110           0
      7419 MEMB     60       POPE     H8X      HAL2     0.900000E-01   1.00800           0
      7420 MEMB     60       POPE     H8Y      HAL2     0.900000E-01   1.00800           0
      7421 MEMB     60       POPE     C39      CTL2    -0.180000       12.0110           0
      7422 MEMB     60       POPE     H9X      HAL2     0.900000E-01   1.00800           0
      7423 MEMB     60       POPE     H9Y      HAL2     0.900000E-01   1.00800           0
      7424 MEMB     60       POPE     C310     CTL2    -0.180000       12.0110           0
      7425 MEMB     60       POPE     H10X     HAL2     0.900000E-01   1.00800           0
      7426 MEMB     60       POPE     H10Y     HAL2     0.900000E-01   1.00800           0
      7427 MEMB     60       POPE     C311     CTL2    -0.180000       12.0110           0
      7428 MEMB     60       POPE     H11X     HAL2     0.900000E-01   1.00800           0
      7429 MEMB     60       POPE     H11Y     HAL2     0.900000E-01   1.00800           0
      7430 MEMB     60       POPE     C312     CTL2    -0.180000       12.0110           0
      7431 MEMB     60       POPE     H12X     HAL2     0.900000E-01   1.00800           0
      7432 MEMB     60       POPE     H12Y     HAL2     0.900000E-01   1.00800           0
      7433 MEMB     60       POPE     C313     CTL2    -0.180000       12.0110           0
      7434 MEMB     60       POPE     H13X     HAL2     0.900000E-01   1.00800           0
      7435 MEMB     60       POPE     H13Y     HAL2     0.900000E-01   1.00800           0
      7436 MEMB     60       POPE     C314     CTL2    -0.180000       12.0110           0
      7437 MEMB     60       POPE     H14X     HAL2     0.900000E-01   1.00800           0
      7438 MEMB     60       POPE     H14Y     HAL2     0.900000E-01   1.00800           0
      7439 MEMB     60       POPE     C315     CTL2    -0.180000       12.0110           0
      7440 MEMB     60       POPE     H15X     HAL2     0.900000E-01   1.00800           0
      7441 MEMB     60       POPE     H15Y     HAL2     0.900000E-01   1.00800           0
      7442 MEMB     60       POPE     C316     CTL3    -0.270000       12.0110           0
      7443 MEMB     60       POPE     H16X     HAL3     0.900000E-01   1.00800           0
      7444 MEMB     60       POPE     H16Y     HAL3     0.900000E-01   1.00800           0
      7445 MEMB     60       POPE     H16Z     HAL3     0.900000E-01   1.00800           0
      7446 MEMB     61       PMPE     N        NH3L    -0.300000       14.0070           0
      7447 MEMB     61       PMPE     HN1      HCL      0.330000       1.00800           0
      7448 MEMB     61       PMPE     HN2      HCL      0.330000       1.00800           0
      7449 MEMB     61       PMPE     HN3      HCL      0.330000       1.00800           0
      7450 MEMB     61       PMPE     C12      CTL2     0.130000       12.0110           0
      7451 MEMB     61       PMPE     H12A     HAL2     0.900000E-01   1.00800           0
      7452 MEMB     61       PMPE     H12B     HAL2     0.900000E-01   1.00800           0
      7453 MEMB     61       PMPE     C11      CTL2    -0.800000E-01   12.0110           0
      7454 MEMB     61       PMPE     H11A     HAL2     0.900000E-01   1.00800           0
      7455 MEMB     61       PMPE     H11B     HAL2     0.900000E-01   1.00800           0
      7456 MEMB     61       PMPE     P        PL        1.50000       30.9740           0
      7457 MEMB     61       PMPE     O13      O2L     -0.780000       15.9994           0
      7458 MEMB     61       PMPE     O14      O2L     -0.780000       15.9994           0
      7459 MEMB     61       PMPE     O11      OSLP    -0.570000       15.9994           0
      7460 MEMB     61       PMPE     O12      OSLP    -0.570000       15.9994           0
      7461 MEMB     61       PMPE     C1       CTL2    -0.800000E-01   12.0110           0
      7462 MEMB     61       PMPE     HA       HAL2     0.900000E-01   1.00800           0
      7463 MEMB     61       PMPE     HB       HAL2     0.900000E-01   1.00800           0
      7464 MEMB     61       PMPE     C2       CTL1     0.170000       12.0110           0
      7465 MEMB     61       PMPE     HS       HAL1     0.900000E-01   1.00800           0
      7466 MEMB     61       PMPE     O21      OSL     -0.490000       15.9994           0
      7467 MEMB     61       PMPE     C21      CL       0.900000       12.0110           0
      7468 MEMB     61       PMPE     O22      OBL     -0.630000       15.9994           0
      7469 MEMB     61       PMPE     C22      CTL2    -0.220000       12.0110           0
      7470 MEMB     61       PMPE     H2R      HAL2     0.900000E-01   1.00800           0
      7471 MEMB     61       PMPE     H2S      HAL2     0.900000E-01   1.00800           0
      7472 MEMB     61       PMPE     C3       CTL2     0.800000E-01   12.0110           0
      7473 MEMB     61       PMPE     HX       HAL2     0.900000E-01   1.00800           0
      7474 MEMB     61       PMPE     HY       HAL2     0.900000E-01   1.00800           0
      7475 MEMB     61       PMPE     O31      OSL     -0.490000       15.9994           0
      7476 MEMB     61       PMPE     C31      CL       0.900000       12.0110           0
      7477 MEMB     61       PMPE     O32      OBL     -0.630000       15.9994           0
      7478 MEMB     61       PMPE     C32      CTL2    -0.220000       12.0110           0
      7479 MEMB     61       PMPE     H2X      HAL2     0.900000E-01   1.00800           0
      7480 MEMB     61       PMPE     H2Y      HAL2     0.900000E-01   1.00800           0
      7481 MEMB     61       PMPE     C23      CTL2    -0.180000       12.0110           0
      7482 MEMB     61       PMPE     H3R      HAL2     0.900000E-01   1.00800           0
      7483 MEMB     61       PMPE     H3S      HAL2     0.900000E-01   1.00800           0
      7484 MEMB     61       PMPE     C24      CTL2    -0.180000       12.0110           0
      7485 MEMB     61       PMPE     H4R      HAL2     0.900000E-01   1.00800           0
      7486 MEMB     61       PMPE     H4S      HAL2     0.900000E-01   1.00800           0
      7487 MEMB     61       PMPE     C25      CTL2    -0.180000       12.0110           0
      7488 MEMB     61       PMPE     H5R      HAL2     0.900000E-01   1.00800           0
      7489 MEMB     61       PMPE     H5S      HAL2     0.900000E-01   1.00800           0
      7490 MEMB     61       PMPE     C26      CTL2    -0.180000       12.0110           0
      7491 MEMB     61       PMPE     H6R      HAL2     0.900000E-01   1.00800           0
      7492 MEMB     61       PMPE     H6S      HAL2     0.900000E-01   1.00800           0
      7493 MEMB     61       PMPE     C27      CTL2    -0.180000       12.0110           0
      7494 MEMB     61       PMPE     H7R      HAL2     0.900000E-01   1.00800           0
      7495 MEMB     61       PMPE     H7S      HAL2     0.900000E-01   1.00800           0
      7496 MEMB     61       PMPE     C28      CTL2    -0.180000       12.0110           0
      7497 MEMB     61       PMPE     H8R      HAL2     0.900000E-01   1.00800           0
      7498 MEMB     61       PMPE     H8S      HAL2     0.900000E-01   1.00800           0
      7499 MEMB     61       PMPE     C29      CG3RC1  -0.900000E-01   12.0110           0
      7500 MEMB     61       PMPE     H9R      HGA1     0.900000E-01   1.00800           0
      7501 MEMB     61       PMPE     C217     CG3C31  -0.180000       12.0110           0
      7502 MEMB     61       PMPE     H17R     HGA2     0.900000E-01   1.00800           0
      7503 MEMB     61       PMPE     H17S     HGA2     0.900000E-01   1.00800           0
      7504 MEMB     61       PMPE     C210     CG3RC1  -0.900000E-01   12.0110           0
      7505 MEMB     61       PMPE     H10R     HGA1     0.900000E-01   1.00800           0
      7506 MEMB     61       PMPE     C211     CTL2    -0.180000       12.0110           0
      7507 MEMB     61       PMPE     H11R     HAL2     0.900000E-01   1.00800           0
      7508 MEMB     61       PMPE     H11S     HAL2     0.900000E-01   1.00800           0
      7509 MEMB     61       PMPE     C212     CTL2    -0.180000       12.0110           0
      7510 MEMB     61       PMPE     H12R     HAL2     0.900000E-01   1.00800           0
      7511 MEMB     61       PMPE     H12S     HAL2     0.900000E-01   1.00800           0
      7512 MEMB     61       PMPE     C213     CTL2    -0.180000       12.0110           0
      7513 MEMB     61       PMPE     H13R     HAL2     0.900000E-01   1.00800           0
      7514 MEMB     61       PMPE     H13S     HAL2     0.900000E-01   1.00800           0
      7515 MEMB     61       PMPE     C214     CTL2    -0.180000       12.0110           0
      7516 MEMB     61       PMPE     H14R     HAL2     0.900000E-01   1.00800           0
      7517 MEMB     61       PMPE     H14S     HAL2     0.900000E-01   1.00800           0
      7518 MEMB     61       PMPE     C215     CTL2    -0.180000       12.0110           0
      7519 MEMB     61       PMPE     H15R     HAL2     0.900000E-01   1.00800           0
      7520 MEMB     61       PMPE     H15S     HAL2     0.900000E-01   1.00800           0
      7521 MEMB     61       PMPE     C216     CTL3    -0.270000       12.0110           0
      7522 MEMB     61       PMPE     H16R     HAL3     0.900000E-01   1.00800           0
      7523 MEMB     61       PMPE     H16S     HAL3     0.900000E-01   1.00800           0
      7524 MEMB     61       PMPE     H16T     HAL3     0.900000E-01   1.00800           0
      7525 MEMB     61       PMPE     C33      CTL2    -0.180000       12.0110           0
      7526 MEMB     61       PMPE     H3X      HAL2     0.900000E-01   1.00800           0
      7527 MEMB     61       PMPE     H3Y      HAL2     0.900000E-01   1.00800           0
      7528 MEMB     61       PMPE     C34      CTL2    -0.180000       12.0110           0
      7529 MEMB     61       PMPE     H4X      HAL2     0.900000E-01   1.00800           0
      7530 MEMB     61       PMPE     H4Y      HAL2     0.900000E-01   1.00800           0
      7531 MEMB     61       PMPE     C35      CTL2    -0.180000       12.0110           0
      7532 MEMB     61       PMPE     H5X      HAL2     0.900000E-01   1.00800           0
      7533 MEMB     61       PMPE     H5Y      HAL2     0.900000E-01   1.00800           0
      7534 MEMB     61       PMPE     C36      CTL2    -0.180000       12.0110           0
      7535 MEMB     61       PMPE     H6X      HAL2     0.900000E-01   1.00800           0
      7536 MEMB     61       PMPE     H6Y      HAL2     0.900000E-01   1.00800           0
      7537 MEMB     61       PMPE     C37      CTL2    -0.180000       12.0110           0
      7538 MEMB     61       PMPE     H7X      HAL2     0.900000E-01   1.00800           0
      7539 MEMB     61       PMPE     H7Y      HAL2     0.900000E-01   1.00800           0
      7540 MEMB     61       PMPE     C38      CTL2    -0.180000       12.0110           0
      7541 MEMB     61       PMPE     H8X      HAL2     0.900000E-01   1.00800           0
      7542 MEMB     61       PMPE     H8Y      HAL2     0.900000E-01   1.00800           0
      7543 MEMB     61       PMPE     C39      CTL2    -0.180000       12.0110           0
      7544 MEMB     61       PMPE     H9X      HAL2     0.900000E-01   1.00800           0
      7545 MEMB     61       PMPE     H9Y      HAL2     0.900000E-01   1.00800           0
      7546 MEMB     61       PMPE     C310     CTL2    -0.180000       12.0110           0
      7547 MEMB     61       PMPE     H10X     HAL2     0.900000E-01   1.00800           0
      7548 MEMB     61       PMPE     H10Y     HAL2     0.900000E-01   1.00800           0
      7549 MEMB     61       PMPE     C311     CTL2    -0.180000       12.0110           0
      7550 MEMB     61       PMPE     H11X     HAL2     0.900000E-01   1.00800           0
      7551 MEMB     61       PMPE     H11Y     HAL2     0.900000E-01   1.00800           0
      7552 MEMB     61       PMPE     C312     CTL2    -0.180000       12.0110           0
      7553 MEMB     61       PMPE     H12X     HAL2     0.900000E-01   1.00800           0
      7554 MEMB     61       PMPE     H12Y     HAL2     0.900000E-01   1.00800           0
      7555 MEMB     61       PMPE     C313     CTL2    -0.180000       12.0110           0
      7556 MEMB     61       PMPE     H13X     HAL2     0.900000E-01   1.00800           0
      7557 MEMB     61       PMPE     H13Y     HAL2     0.900000E-01   1.00800           0
      7558 MEMB     61       PMPE     C314     CTL2    -0.180000       12.0110           0
      7559 MEMB     61       PMPE     H14X     HAL2     0.900000E-01   1.00800           0
      7560 MEMB     61       PMPE     H14Y     HAL2     0.900000E-01   1.00800           0
      7561 MEMB     61       PMPE     C315     CTL2    -0.180000       12.0110           0
      7562 MEMB     61       PMPE     H15X     HAL2     0.900000E-01   1.00800           0
      7563 MEMB     61       PMPE     H15Y     HAL2     0.900000E-01   1.00800           0
      7564 MEMB     61       PMPE     C316     CTL3    -0.270000       12.0110           0
      7565 MEMB     61       PMPE     H16X     HAL3     0.900000E-01   1.00800           0
      7566 MEMB     61       PMPE     H16Y     HAL3     0.900000E-01   1.00800           0
      7567 MEMB     61       PMPE     H16Z     HAL3     0.900000E-01   1.00800           0
      7568 MEMB     62       OYPE     N        NH3L    -0.300000       14.0070           0
      7569 MEMB     62       OYPE     HN1      HCL      0.330000       1.00800           0
      7570 MEMB     62       OYPE     HN2      HCL      0.330000       1.00800           0
      7571 MEMB     62       OYPE     HN3      HCL      0.330000       1.00800           0
      7572 MEMB     62       OYPE     C12      CTL2     0.130000       12.0110           0
      7573 MEMB     62       OYPE     H12A     HAL2     0.900000E-01   1.00800           0
      7574 MEMB     62       OYPE     H12B     HAL2     0.900000E-01   1.00800           0
      7575 MEMB     62       OYPE     C11      CTL2    -0.800000E-01   12.0110           0
      7576 MEMB     62       OYPE     H11A     HAL2     0.900000E-01   1.00800           0
      7577 MEMB     62       OYPE     H11B     HAL2     0.900000E-01   1.00800           0
      7578 MEMB     62       OYPE     P        PL        1.50000       30.9740           0
      7579 MEMB     62       OYPE     O13      O2L     -0.780000       15.9994           0
      7580 MEMB     62       OYPE     O14      O2L     -0.780000       15.9994           0
      7581 MEMB     62       OYPE     O11      OSLP    -0.570000       15.9994           0
      7582 MEMB     62       OYPE     O12      OSLP    -0.570000       15.9994           0
      7583 MEMB     62       OYPE     C1       CTL2    -0.800000E-01   12.0110           0
      7584 MEMB     62       OYPE     HA       HAL2     0.900000E-01   1.00800           0
      7585 MEMB     62       OYPE     HB       HAL2     0.900000E-01   1.00800           0
      7586 MEMB     62       OYPE     C2       CTL1     0.170000       12.0110           0
      7587 MEMB     62       OYPE     HS       HAL1     0.900000E-01   1.00800           0
      7588 MEMB     62       OYPE     O21      OSL     -0.490000       15.9994           0
      7589 MEMB     62       OYPE     C21      CL       0.900000       12.0110           0
      7590 MEMB     62       OYPE     O22      OBL     -0.630000       15.9994           0
      7591 MEMB     62       OYPE     C22      CTL2    -0.220000       12.0110           0
      7592 MEMB     62       OYPE     H2R      HAL2     0.900000E-01   1.00800           0
      7593 MEMB     62       OYPE     H2S      HAL2     0.900000E-01   1.00800           0
      7594 MEMB     62       OYPE     C3       CTL2     0.800000E-01   12.0110           0
      7595 MEMB     62       OYPE     HX       HAL2     0.900000E-01   1.00800           0
      7596 MEMB     62       OYPE     HY       HAL2     0.900000E-01   1.00800           0
      7597 MEMB     62       OYPE     O31      OSL     -0.490000       15.9994           0
      7598 MEMB     62       OYPE     C31      CL       0.900000       12.0110           0
      7599 MEMB     62       OYPE     O32      OBL     -0.630000       15.9994           0
      7600 MEMB     62       OYPE     C32      CTL2    -0.220000       12.0110           0
      7601 MEMB     62       OYPE     H2X      HAL2     0.900000E-01   1.00800           0
      7602 MEMB     62       OYPE     H2Y      HAL2     0.900000E-01   1.00800           0
      7603 MEMB     62       OYPE     C23      CTL2    -0.180000       12.0110           0
      7604 MEMB     62       OYPE     H3R      HAL2     0.900000E-01   1.00800           0
      7605 MEMB     62       OYPE     H3S      HAL2     0.900000E-01   1.00800           0
      7606 MEMB     62       OYPE     C24      CTL2    -0.180000       12.0110           0
      7607 MEMB     62       OYPE     H4R      HAL2     0.900000E-01   1.00800           0
      7608 MEMB     62       OYPE     H4S      HAL2     0.900000E-01   1.00800           0
      7609 MEMB     62       OYPE     C25      CTL2    -0.180000       12.0110           0
      7610 MEMB     62       OYPE     H5R      HAL2     0.900000E-01   1.00800           0
      7611 MEMB     62       OYPE     H5S      HAL2     0.900000E-01   1.00800           0
      7612 MEMB     62       OYPE     C26      CTL2    -0.180000       12.0110           0
      7613 MEMB     62       OYPE     H6R      HAL2     0.900000E-01   1.00800           0
      7614 MEMB     62       OYPE     H6S      HAL2     0.900000E-01   1.00800           0
      7615 MEMB     62       OYPE     C27      CTL2    -0.180000       12.0110           0
      7616 MEMB     62       OYPE     H7R      HAL2     0.900000E-01   1.00800           0
      7617 MEMB     62       OYPE     H7S      HAL2     0.900000E-01   1.00800           0
      7618 MEMB     62       OYPE     C28      CTL2    -0.180000       12.0110           0
      7619 MEMB     62       OYPE     H8R      HAL2     0.900000E-01   1.00800           0
      7620 MEMB     62       OYPE     H8S      HAL2     0.900000E-01   1.00800           0
      7621 MEMB     62       OYPE     C29      CEL1    -0.150000       12.0110           0
      7622 MEMB     62       OYPE     H9R      HEL1     0.150000       1.00800           0
      7623 MEMB     62       OYPE     C210     CEL1    -0.150000       12.0110           0
      7624 MEMB     62       OYPE     H10R     HEL1     0.150000       1.00800           0
      7625 MEMB     62       OYPE     C211     CTL2    -0.180000       12.0110           0
      7626 MEMB     62       OYPE     H11R     HAL2     0.900000E-01   1.00800           0
      7627 MEMB     62       OYPE     H11S     HAL2     0.900000E-01   1.00800           0
      7628 MEMB     62       OYPE     C212     CTL2    -0.180000       12.0110           0
      7629 MEMB     62       OYPE     H12R     HAL2     0.900000E-01   1.00800           0
      7630 MEMB     62       OYPE     H12S     HAL2     0.900000E-01   1.00800           0
      7631 MEMB     62       OYPE     C213     CTL2    -0.180000       12.0110           0
      7632 MEMB     62       OYPE     H13R     HAL2     0.900000E-01   1.00800           0
      7633 MEMB     62       OYPE     H13S     HAL2     0.900000E-01   1.00800           0
      7634 MEMB     62       OYPE     C214     CTL2    -0.180000       12.0110           0
      7635 MEMB     62       OYPE     H14R     HAL2     0.900000E-01   1.00800           0
      7636 MEMB     62       OYPE     H14S     HAL2     0.900000E-01   1.00800           0
      7637 MEMB     62       OYPE     C215     CTL2    -0.180000       12.0110           0
      7638 MEMB     62       OYPE     H15R     HAL2     0.900000E-01   1.00800           0
      7639 MEMB     62       OYPE     H15S     HAL2     0.900000E-01   1.00800           0
      7640 MEMB     62       OYPE     C216     CTL3    -0.270000       12.0110           0
      7641 MEMB     62       OYPE     H16R     HAL3     0.900000E-01   1.00800           0
      7642 MEMB     62       OYPE     H16S     HAL3     0.900000E-01   1.00800           0
      7643 MEMB     62       OYPE     H16T     HAL3     0.900000E-01   1.00800           0
      7644 MEMB     62       OYPE     C33      CTL2    -0.180000       12.0110           0
      7645 MEMB     62       OYPE     H3X      HAL2     0.900000E-01   1.00800           0
      7646 MEMB     62       OYPE     H3Y      HAL2     0.900000E-01   1.00800           0
      7647 MEMB     62       OYPE     C34      CTL2    -0.180000       12.0110           0
      7648 MEMB     62       OYPE     H4X      HAL2     0.900000E-01   1.00800           0
      7649 MEMB     62       OYPE     H4Y      HAL2     0.900000E-01   1.00800           0
      7650 MEMB     62       OYPE     C35      CTL2    -0.180000       12.0110           0
      7651 MEMB     62       OYPE     H5X      HAL2     0.900000E-01   1.00800           0
      7652 MEMB     62       OYPE     H5Y      HAL2     0.900000E-01   1.00800           0
      7653 MEMB     62       OYPE     C36      CTL2    -0.180000       12.0110           0
      7654 MEMB     62       OYPE     H6X      HAL2     0.900000E-01   1.00800           0
      7655 MEMB     62       OYPE     H6Y      HAL2     0.900000E-01   1.00800           0
      7656 MEMB     62       OYPE     C37      CTL2    -0.180000       12.0110           0
      7657 MEMB     62       OYPE     H7X      HAL2     0.900000E-01   1.00800           0
      7658 MEMB     62       OYPE     H7Y      HAL2     0.900000E-01   1.00800           0
      7659 MEMB     62       OYPE     C38      CTL2    -0.180000       12.0110           0
      7660 MEMB     62       OYPE     H8X      HAL2     0.900000E-01   1.00800           0
      7661 MEMB     62       OYPE     H8Y      HAL2     0.900000E-01   1.00800           0
      7662 MEMB     62       OYPE     C39      CEL1    -0.150000       12.0110           0
      7663 MEMB     62       OYPE     H9X      HEL1     0.150000       1.00800           0
      7664 MEMB     62       OYPE     C310     CEL1    -0.150000       12.0110           0
      7665 MEMB     62       OYPE     H10X     HEL1     0.150000       1.00800           0
      7666 MEMB     62       OYPE     C311     CTL2    -0.180000       12.0110           0
      7667 MEMB     62       OYPE     H11X     HAL2     0.900000E-01   1.00800           0
      7668 MEMB     62       OYPE     H11Y     HAL2     0.900000E-01   1.00800           0
      7669 MEMB     62       OYPE     C312     CTL2    -0.180000       12.0110           0
      7670 MEMB     62       OYPE     H12X     HAL2     0.900000E-01   1.00800           0
      7671 MEMB     62       OYPE     H12Y     HAL2     0.900000E-01   1.00800           0
      7672 MEMB     62       OYPE     C313     CTL2    -0.180000       12.0110           0
      7673 MEMB     62       OYPE     H13X     HAL2     0.900000E-01   1.00800           0
      7674 MEMB     62       OYPE     H13Y     HAL2     0.900000E-01   1.00800           0
      7675 MEMB     62       OYPE     C314     CTL2    -0.180000       12.0110           0
      7676 MEMB     62       OYPE     H14X     HAL2     0.900000E-01   1.00800           0
      7677 MEMB     62       OYPE     H14Y     HAL2     0.900000E-01   1.00800           0
      7678 MEMB     62       OYPE     C315     CTL2    -0.180000       12.0110           0
      7679 MEMB     62       OYPE     H15X     HAL2     0.900000E-01   1.00800           0
      7680 MEMB     62       OYPE     H15Y     HAL2     0.900000E-01   1.00800           0
      7681 MEMB     62       OYPE     C316     CTL2    -0.180000       12.0110           0
      7682 MEMB     62       OYPE     H16X     HAL2     0.900000E-01   1.00800           0
      7683 MEMB     62       OYPE     H16Y     HAL2     0.900000E-01   1.00800           0
      7684 MEMB     62       OYPE     C317     CTL2    -0.180000       12.0110           0
      7685 MEMB     62       OYPE     H17X     HAL2     0.900000E-01   1.00800           0
      7686 MEMB     62       OYPE     H17Y     HAL2     0.900000E-01   1.00800           0
      7687 MEMB     62       OYPE     C318     CTL3    -0.270000       12.0110           0
      7688 MEMB     62       OYPE     H18X     HAL3     0.900000E-01   1.00800           0
      7689 MEMB     62       OYPE     H18Y     HAL3     0.900000E-01   1.00800           0
      7690 MEMB     62       OYPE     H18Z     HAL3     0.900000E-01   1.00800           0
      7691 MEMB     63       PMPG     C13      CTL2     0.500000E-01   12.0110           0
      7692 MEMB     63       PMPG     H13A     HAL2     0.900000E-01   1.00800           0
      7693 MEMB     63       PMPG     H13B     HAL2     0.900000E-01   1.00800           0
      7694 MEMB     63       PMPG     OC3      OHL     -0.660000       15.9994           0
      7695 MEMB     63       PMPG     HO3      HOL      0.430000       1.00800           0
      7696 MEMB     63       PMPG     C12      CTL1     0.140000       12.0110           0
      7697 MEMB     63       PMPG     H12A     HAL1     0.900000E-01   1.00800           0
      7698 MEMB     63       PMPG     OC2      OHL     -0.660000       15.9994           0
      7699 MEMB     63       PMPG     HO2      HOL      0.430000       1.00800           0
      7700 MEMB     63       PMPG     C11      CTL2    -0.800000E-01   12.0110           0
      7701 MEMB     63       PMPG     H11A     HAL2     0.900000E-01   1.00800           0
      7702 MEMB     63       PMPG     H11B     HAL2     0.900000E-01   1.00800           0
      7703 MEMB     63       PMPG     P        PL        1.50000       30.9740           0
      7704 MEMB     63       PMPG     O13      O2L     -0.780000       15.9994           0
      7705 MEMB     63       PMPG     O14      O2L     -0.780000       15.9994           0
      7706 MEMB     63       PMPG     O11      OSLP    -0.570000       15.9994           0
      7707 MEMB     63       PMPG     O12      OSLP    -0.570000       15.9994           0
      7708 MEMB     63       PMPG     C1       CTL2    -0.800000E-01   12.0110           0
      7709 MEMB     63       PMPG     HA       HAL2     0.900000E-01   1.00800           0
      7710 MEMB     63       PMPG     HB       HAL2     0.900000E-01   1.00800           0
      7711 MEMB     63       PMPG     C2       CTL1     0.170000       12.0110           0
      7712 MEMB     63       PMPG     HS       HAL1     0.900000E-01   1.00800           0
      7713 MEMB     63       PMPG     O21      OSL     -0.490000       15.9994           0
      7714 MEMB     63       PMPG     C21      CL       0.900000       12.0110           0
      7715 MEMB     63       PMPG     O22      OBL     -0.630000       15.9994           0
      7716 MEMB     63       PMPG     C22      CTL2    -0.220000       12.0110           0
      7717 MEMB     63       PMPG     H2R      HAL2     0.900000E-01   1.00800           0
      7718 MEMB     63       PMPG     H2S      HAL2     0.900000E-01   1.00800           0
      7719 MEMB     63       PMPG     C3       CTL2     0.800000E-01   12.0110           0
      7720 MEMB     63       PMPG     HX       HAL2     0.900000E-01   1.00800           0
      7721 MEMB     63       PMPG     HY       HAL2     0.900000E-01   1.00800           0
      7722 MEMB     63       PMPG     O31      OSL     -0.490000       15.9994           0
      7723 MEMB     63       PMPG     C31      CL       0.900000       12.0110           0
      7724 MEMB     63       PMPG     O32      OBL     -0.630000       15.9994           0
      7725 MEMB     63       PMPG     C32      CTL2    -0.220000       12.0110           0
      7726 MEMB     63       PMPG     H2X      HAL2     0.900000E-01   1.00800           0
      7727 MEMB     63       PMPG     H2Y      HAL2     0.900000E-01   1.00800           0
      7728 MEMB     63       PMPG     C23      CTL2    -0.180000       12.0110           0
      7729 MEMB     63       PMPG     H3R      HAL2     0.900000E-01   1.00800           0
      7730 MEMB     63       PMPG     H3S      HAL2     0.900000E-01   1.00800           0
      7731 MEMB     63       PMPG     C24      CTL2    -0.180000       12.0110           0
      7732 MEMB     63       PMPG     H4R      HAL2     0.900000E-01   1.00800           0
      7733 MEMB     63       PMPG     H4S      HAL2     0.900000E-01   1.00800           0
      7734 MEMB     63       PMPG     C25      CTL2    -0.180000       12.0110           0
      7735 MEMB     63       PMPG     H5R      HAL2     0.900000E-01   1.00800           0
      7736 MEMB     63       PMPG     H5S      HAL2     0.900000E-01   1.00800           0
      7737 MEMB     63       PMPG     C26      CTL2    -0.180000       12.0110           0
      7738 MEMB     63       PMPG     H6R      HAL2     0.900000E-01   1.00800           0
      7739 MEMB     63       PMPG     H6S      HAL2     0.900000E-01   1.00800           0
      7740 MEMB     63       PMPG     C27      CTL2    -0.180000       12.0110           0
      7741 MEMB     63       PMPG     H7R      HAL2     0.900000E-01   1.00800           0
      7742 MEMB     63       PMPG     H7S      HAL2     0.900000E-01   1.00800           0
      7743 MEMB     63       PMPG     C28      CTL2    -0.180000       12.0110           0
      7744 MEMB     63       PMPG     H8R      HAL2     0.900000E-01   1.00800           0
      7745 MEMB     63       PMPG     H8S      HAL2     0.900000E-01   1.00800           0
      7746 MEMB     63       PMPG     C29      CG3RC1  -0.900000E-01   12.0110           0
      7747 MEMB     63       PMPG     H9R      HGA1     0.900000E-01   1.00800           0
      7748 MEMB     63       PMPG     C217     CG3C31  -0.180000       12.0110           0
      7749 MEMB     63       PMPG     H17R     HGA2     0.900000E-01   1.00800           0
      7750 MEMB     63       PMPG     H17S     HGA2     0.900000E-01   1.00800           0
      7751 MEMB     63       PMPG     C210     CG3RC1  -0.900000E-01   12.0110           0
      7752 MEMB     63       PMPG     H10R     HGA1     0.900000E-01   1.00800           0
      7753 MEMB     63       PMPG     C211     CTL2    -0.180000       12.0110           0
      7754 MEMB     63       PMPG     H11R     HAL2     0.900000E-01   1.00800           0
      7755 MEMB     63       PMPG     H11S     HAL2     0.900000E-01   1.00800           0
      7756 MEMB     63       PMPG     C212     CTL2    -0.180000       12.0110           0
      7757 MEMB     63       PMPG     H12R     HAL2     0.900000E-01   1.00800           0
      7758 MEMB     63       PMPG     H12S     HAL2     0.900000E-01   1.00800           0
      7759 MEMB     63       PMPG     C213     CTL2    -0.180000       12.0110           0
      7760 MEMB     63       PMPG     H13R     HAL2     0.900000E-01   1.00800           0
      7761 MEMB     63       PMPG     H13S     HAL2     0.900000E-01   1.00800           0
      7762 MEMB     63       PMPG     C214     CTL2    -0.180000       12.0110           0
      7763 MEMB     63       PMPG     H14R     HAL2     0.900000E-01   1.00800           0
      7764 MEMB     63       PMPG     H14S     HAL2     0.900000E-01   1.00800           0
      7765 MEMB     63       PMPG     C215     CTL2    -0.180000       12.0110           0
      7766 MEMB     63       PMPG     H15R     HAL2     0.900000E-01   1.00800           0
      7767 MEMB     63       PMPG     H15S     HAL2     0.900000E-01   1.00800           0
      7768 MEMB     63       PMPG     C216     CTL3    -0.270000       12.0110           0
      7769 MEMB     63       PMPG     H16R     HAL3     0.900000E-01   1.00800           0
      7770 MEMB     63       PMPG     H16S     HAL3     0.900000E-01   1.00800           0
      7771 MEMB     63       PMPG     H16T     HAL3     0.900000E-01   1.00800           0
      7772 MEMB     63       PMPG     C33      CTL2    -0.180000       12.0110           0
      7773 MEMB     63       PMPG     H3X      HAL2     0.900000E-01   1.00800           0
      7774 MEMB     63       PMPG     H3Y      HAL2     0.900000E-01   1.00800           0
      7775 MEMB     63       PMPG     C34      CTL2    -0.180000       12.0110           0
      7776 MEMB     63       PMPG     H4X      HAL2     0.900000E-01   1.00800           0
      7777 MEMB     63       PMPG     H4Y      HAL2     0.900000E-01   1.00800           0
      7778 MEMB     63       PMPG     C35      CTL2    -0.180000       12.0110           0
      7779 MEMB     63       PMPG     H5X      HAL2     0.900000E-01   1.00800           0
      7780 MEMB     63       PMPG     H5Y      HAL2     0.900000E-01   1.00800           0
      7781 MEMB     63       PMPG     C36      CTL2    -0.180000       12.0110           0
      7782 MEMB     63       PMPG     H6X      HAL2     0.900000E-01   1.00800           0
      7783 MEMB     63       PMPG     H6Y      HAL2     0.900000E-01   1.00800           0
      7784 MEMB     63       PMPG     C37      CTL2    -0.180000       12.0110           0
      7785 MEMB     63       PMPG     H7X      HAL2     0.900000E-01   1.00800           0
      7786 MEMB     63       PMPG     H7Y      HAL2     0.900000E-01   1.00800           0
      7787 MEMB     63       PMPG     C38      CTL2    -0.180000       12.0110           0
      7788 MEMB     63       PMPG     H8X      HAL2     0.900000E-01   1.00800           0
      7789 MEMB     63       PMPG     H8Y      HAL2     0.900000E-01   1.00800           0
      7790 MEMB     63       PMPG     C39      CTL2    -0.180000       12.0110           0
      7791 MEMB     63       PMPG     H9X      HAL2     0.900000E-01   1.00800           0
      7792 MEMB     63       PMPG     H9Y      HAL2     0.900000E-01   1.00800           0
      7793 MEMB     63       PMPG     C310     CTL2    -0.180000       12.0110           0
      7794 MEMB     63       PMPG     H10X     HAL2     0.900000E-01   1.00800           0
      7795 MEMB     63       PMPG     H10Y     HAL2     0.900000E-01   1.00800           0
      7796 MEMB     63       PMPG     C311     CTL2    -0.180000       12.0110           0
      7797 MEMB     63       PMPG     H11X     HAL2     0.900000E-01   1.00800           0
      7798 MEMB     63       PMPG     H11Y     HAL2     0.900000E-01   1.00800           0
      7799 MEMB     63       PMPG     C312     CTL2    -0.180000       12.0110           0
      7800 MEMB     63       PMPG     H12X     HAL2     0.900000E-01   1.00800           0
      7801 MEMB     63       PMPG     H12Y     HAL2     0.900000E-01   1.00800           0
      7802 MEMB     63       PMPG     C313     CTL2    -0.180000       12.0110           0
      7803 MEMB     63       PMPG     H13X     HAL2     0.900000E-01   1.00800           0
      7804 MEMB     63       PMPG     H13Y     HAL2     0.900000E-01   1.00800           0
      7805 MEMB     63       PMPG     C314     CTL2    -0.180000       12.0110           0
      7806 MEMB     63       PMPG     H14X     HAL2     0.900000E-01   1.00800           0
      7807 MEMB     63       PMPG     H14Y     HAL2     0.900000E-01   1.00800           0
      7808 MEMB     63       PMPG     C315     CTL2    -0.180000       12.0110           0
      7809 MEMB     63       PMPG     H15X     HAL2     0.900000E-01   1.00800           0
      7810 MEMB     63       PMPG     H15Y     HAL2     0.900000E-01   1.00800           0
      7811 MEMB     63       PMPG     C316     CTL3    -0.270000       12.0110           0
      7812 MEMB     63       PMPG     H16X     HAL3     0.900000E-01   1.00800           0
      7813 MEMB     63       PMPG     H16Y     HAL3     0.900000E-01   1.00800           0
      7814 MEMB     63       PMPG     H16Z     HAL3     0.900000E-01   1.00800           0
      7815 MEMB     64       PMPG     C13      CTL2     0.500000E-01   12.0110           0
      7816 MEMB     64       PMPG     H13A     HAL2     0.900000E-01   1.00800           0
      7817 MEMB     64       PMPG     H13B     HAL2     0.900000E-01   1.00800           0
      7818 MEMB     64       PMPG     OC3      OHL     -0.660000       15.9994           0
      7819 MEMB     64       PMPG     HO3      HOL      0.430000       1.00800           0
      7820 MEMB     64       PMPG     C12      CTL1     0.140000       12.0110           0
      7821 MEMB     64       PMPG     H12A     HAL1     0.900000E-01   1.00800           0
      7822 MEMB     64       PMPG     OC2      OHL     -0.660000       15.9994           0
      7823 MEMB     64       PMPG     HO2      HOL      0.430000       1.00800           0
      7824 MEMB     64       PMPG     C11      CTL2    -0.800000E-01   12.0110           0
      7825 MEMB     64       PMPG     H11A     HAL2     0.900000E-01   1.00800           0
      7826 MEMB     64       PMPG     H11B     HAL2     0.900000E-01   1.00800           0
      7827 MEMB     64       PMPG     P        PL        1.50000       30.9740           0
      7828 MEMB     64       PMPG     O13      O2L     -0.780000       15.9994           0
      7829 MEMB     64       PMPG     O14      O2L     -0.780000       15.9994           0
      7830 MEMB     64       PMPG     O11      OSLP    -0.570000       15.9994           0
      7831 MEMB     64       PMPG     O12      OSLP    -0.570000       15.9994           0
      7832 MEMB     64       PMPG     C1       CTL2    -0.800000E-01   12.0110           0
      7833 MEMB     64       PMPG     HA       HAL2     0.900000E-01   1.00800           0
      7834 MEMB     64       PMPG     HB       HAL2     0.900000E-01   1.00800           0
      7835 MEMB     64       PMPG     C2       CTL1     0.170000       12.0110           0
      7836 MEMB     64       PMPG     HS       HAL1     0.900000E-01   1.00800           0
      7837 MEMB     64       PMPG     O21      OSL     -0.490000       15.9994           0
      7838 MEMB     64       PMPG     C21      CL       0.900000       12.0110           0
      7839 MEMB     64       PMPG     O22      OBL     -0.630000       15.9994           0
      7840 MEMB     64       PMPG     C22      CTL2    -0.220000       12.0110           0
      7841 MEMB     64       PMPG     H2R      HAL2     0.900000E-01   1.00800           0
      7842 MEMB     64       PMPG     H2S      HAL2     0.900000E-01   1.00800           0
      7843 MEMB     64       PMPG     C3       CTL2     0.800000E-01   12.0110           0
      7844 MEMB     64       PMPG     HX       HAL2     0.900000E-01   1.00800           0
      7845 MEMB     64       PMPG     HY       HAL2     0.900000E-01   1.00800           0
      7846 MEMB     64       PMPG     O31      OSL     -0.490000       15.9994           0
      7847 MEMB     64       PMPG     C31      CL       0.900000       12.0110           0
      7848 MEMB     64       PMPG     O32      OBL     -0.630000       15.9994           0
      7849 MEMB     64       PMPG     C32      CTL2    -0.220000       12.0110           0
      7850 MEMB     64       PMPG     H2X      HAL2     0.900000E-01   1.00800           0
      7851 MEMB     64       PMPG     H2Y      HAL2     0.900000E-01   1.00800           0
      7852 MEMB     64       PMPG     C23      CTL2    -0.180000       12.0110           0
      7853 MEMB     64       PMPG     H3R      HAL2     0.900000E-01   1.00800           0
      7854 MEMB     64       PMPG     H3S      HAL2     0.900000E-01   1.00800           0
      7855 MEMB     64       PMPG     C24      CTL2    -0.180000       12.0110           0
      7856 MEMB     64       PMPG     H4R      HAL2     0.900000E-01   1.00800           0
      7857 MEMB     64       PMPG     H4S      HAL2     0.900000E-01   1.00800           0
      7858 MEMB     64       PMPG     C25      CTL2    -0.180000       12.0110           0
      7859 MEMB     64       PMPG     H5R      HAL2     0.900000E-01   1.00800           0
      7860 MEMB     64       PMPG     H5S      HAL2     0.900000E-01   1.00800           0
      7861 MEMB     64       PMPG     C26      CTL2    -0.180000       12.0110           0
      7862 MEMB     64       PMPG     H6R      HAL2     0.900000E-01   1.00800           0
      7863 MEMB     64       PMPG     H6S      HAL2     0.900000E-01   1.00800           0
      7864 MEMB     64       PMPG     C27      CTL2    -0.180000       12.0110           0
      7865 MEMB     64       PMPG     H7R      HAL2     0.900000E-01   1.00800           0
      7866 MEMB     64       PMPG     H7S      HAL2     0.900000E-01   1.00800           0
      7867 MEMB     64       PMPG     C28      CTL2    -0.180000       12.0110           0
      7868 MEMB     64       PMPG     H8R      HAL2     0.900000E-01   1.00800           0
      7869 MEMB     64       PMPG     H8S      HAL2     0.900000E-01   1.00800           0
      7870 MEMB     64       PMPG     C29      CG3RC1  -0.900000E-01   12.0110           0
      7871 MEMB     64       PMPG     H9R      HGA1     0.900000E-01   1.00800           0
      7872 MEMB     64       PMPG     C217     CG3C31  -0.180000       12.0110           0
      7873 MEMB     64       PMPG     H17R     HGA2     0.900000E-01   1.00800           0
      7874 MEMB     64       PMPG     H17S     HGA2     0.900000E-01   1.00800           0
      7875 MEMB     64       PMPG     C210     CG3RC1  -0.900000E-01   12.0110           0
      7876 MEMB     64       PMPG     H10R     HGA1     0.900000E-01   1.00800           0
      7877 MEMB     64       PMPG     C211     CTL2    -0.180000       12.0110           0
      7878 MEMB     64       PMPG     H11R     HAL2     0.900000E-01   1.00800           0
      7879 MEMB     64       PMPG     H11S     HAL2     0.900000E-01   1.00800           0
      7880 MEMB     64       PMPG     C212     CTL2    -0.180000       12.0110           0
      7881 MEMB     64       PMPG     H12R     HAL2     0.900000E-01   1.00800           0
      7882 MEMB     64       PMPG     H12S     HAL2     0.900000E-01   1.00800           0
      7883 MEMB     64       PMPG     C213     CTL2    -0.180000       12.0110           0
      7884 MEMB     64       PMPG     H13R     HAL2     0.900000E-01   1.00800           0
      7885 MEMB     64       PMPG     H13S     HAL2     0.900000E-01   1.00800           0
      7886 MEMB     64       PMPG     C214     CTL2    -0.180000       12.0110           0
      7887 MEMB     64       PMPG     H14R     HAL2     0.900000E-01   1.00800           0
      7888 MEMB     64       PMPG     H14S     HAL2     0.900000E-01   1.00800           0
      7889 MEMB     64       PMPG     C215     CTL2    -0.180000       12.0110           0
      7890 MEMB     64       PMPG     H15R     HAL2     0.900000E-01   1.00800           0
      7891 MEMB     64       PMPG     H15S     HAL2     0.900000E-01   1.00800           0
      7892 MEMB     64       PMPG     C216     CTL3    -0.270000       12.0110           0
      7893 MEMB     64       PMPG     H16R     HAL3     0.900000E-01   1.00800           0
      7894 MEMB     64       PMPG     H16S     HAL3     0.900000E-01   1.00800           0
      7895 MEMB     64       PMPG     H16T     HAL3     0.900000E-01   1.00800           0
      7896 MEMB     64       PMPG     C33      CTL2    -0.180000       12.0110           0
      7897 MEMB     64       PMPG     H3X      HAL2     0.900000E-01   1.00800           0
      7898 MEMB     64       PMPG     H3Y      HAL2     0.900000E-01   1.00800           0
      7899 MEMB     64       PMPG     C34      CTL2    -0.180000       12.0110           0
      7900 MEMB     64       PMPG     H4X      HAL2     0.900000E-01   1.00800           0
      7901 MEMB     64       PMPG     H4Y      HAL2     0.900000E-01   1.00800           0
      7902 MEMB     64       PMPG     C35      CTL2    -0.180000       12.0110           0
      7903 MEMB     64       PMPG     H5X      HAL2     0.900000E-01   1.00800           0
      7904 MEMB     64       PMPG     H5Y      HAL2     0.900000E-01   1.00800           0
      7905 MEMB     64       PMPG     C36      CTL2    -0.180000       12.0110           0
      7906 MEMB     64       PMPG     H6X      HAL2     0.900000E-01   1.00800           0
      7907 MEMB     64       PMPG     H6Y      HAL2     0.900000E-01   1.00800           0
      7908 MEMB     64       PMPG     C37      CTL2    -0.180000       12.0110           0
      7909 MEMB     64       PMPG     H7X      HAL2     0.900000E-01   1.00800           0
      7910 MEMB     64       PMPG     H7Y      HAL2     0.900000E-01   1.00800           0
      7911 MEMB     64       PMPG     C38      CTL2    -0.180000       12.0110           0
      7912 MEMB     64       PMPG     H8X      HAL2     0.900000E-01   1.00800           0
      7913 MEMB     64       PMPG     H8Y      HAL2     0.900000E-01   1.00800           0
      7914 MEMB     64       PMPG     C39      CTL2    -0.180000       12.0110           0
      7915 MEMB     64       PMPG     H9X      HAL2     0.900000E-01   1.00800           0
      7916 MEMB     64       PMPG     H9Y      HAL2     0.900000E-01   1.00800           0
      7917 MEMB     64       PMPG     C310     CTL2    -0.180000       12.0110           0
      7918 MEMB     64       PMPG     H10X     HAL2     0.900000E-01   1.00800           0
      7919 MEMB     64       PMPG     H10Y     HAL2     0.900000E-01   1.00800           0
      7920 MEMB     64       PMPG     C311     CTL2    -0.180000       12.0110           0
      7921 MEMB     64       PMPG     H11X     HAL2     0.900000E-01   1.00800           0
      7922 MEMB     64       PMPG     H11Y     HAL2     0.900000E-01   1.00800           0
      7923 MEMB     64       PMPG     C312     CTL2    -0.180000       12.0110           0
      7924 MEMB     64       PMPG     H12X     HAL2     0.900000E-01   1.00800           0
      7925 MEMB     64       PMPG     H12Y     HAL2     0.900000E-01   1.00800           0
      7926 MEMB     64       PMPG     C313     CTL2    -0.180000       12.0110           0
      7927 MEMB     64       PMPG     H13X     HAL2     0.900000E-01   1.00800           0
      7928 MEMB     64       PMPG     H13Y     HAL2     0.900000E-01   1.00800           0
      7929 MEMB     64       PMPG     C314     CTL2    -0.180000       12.0110           0
      7930 MEMB     64       PMPG     H14X     HAL2     0.900000E-01   1.00800           0
      7931 MEMB     64       PMPG     H14Y     HAL2     0.900000E-01   1.00800           0
      7932 MEMB     64       PMPG     C315     CTL2    -0.180000       12.0110           0
      7933 MEMB     64       PMPG     H15X     HAL2     0.900000E-01   1.00800           0
      7934 MEMB     64       PMPG     H15Y     HAL2     0.900000E-01   1.00800           0
      7935 MEMB     64       PMPG     C316     CTL3    -0.270000       12.0110           0
      7936 MEMB     64       PMPG     H16X     HAL3     0.900000E-01   1.00800           0
      7937 MEMB     64       PMPG     H16Y     HAL3     0.900000E-01   1.00800           0
      7938 MEMB     64       PMPG     H16Z     HAL3     0.900000E-01   1.00800           0
      7939 MEMB     65       QMPE     N        NH3L    -0.300000       14.0070           0
      7940 MEMB     65       QMPE     HN1      HCL      0.330000       1.00800           0
      7941 MEMB     65       QMPE     HN2      HCL      0.330000       1.00800           0
      7942 MEMB     65       QMPE     HN3      HCL      0.330000       1.00800           0
      7943 MEMB     65       QMPE     C12      CTL2     0.130000       12.0110           0
      7944 MEMB     65       QMPE     H12A     HAL2     0.900000E-01   1.00800           0
      7945 MEMB     65       QMPE     H12B     HAL2     0.900000E-01   1.00800           0
      7946 MEMB     65       QMPE     C11      CTL2    -0.800000E-01   12.0110           0
      7947 MEMB     65       QMPE     H11A     HAL2     0.900000E-01   1.00800           0
      7948 MEMB     65       QMPE     H11B     HAL2     0.900000E-01   1.00800           0
      7949 MEMB     65       QMPE     P        PL        1.50000       30.9740           0
      7950 MEMB     65       QMPE     O13      O2L     -0.780000       15.9994           0
      7951 MEMB     65       QMPE     O14      O2L     -0.780000       15.9994           0
      7952 MEMB     65       QMPE     O11      OSLP    -0.570000       15.9994           0
      7953 MEMB     65       QMPE     O12      OSLP    -0.570000       15.9994           0
      7954 MEMB     65       QMPE     C1       CTL2    -0.800000E-01   12.0110           0
      7955 MEMB     65       QMPE     HA       HAL2     0.900000E-01   1.00800           0
      7956 MEMB     65       QMPE     HB       HAL2     0.900000E-01   1.00800           0
      7957 MEMB     65       QMPE     C2       CTL1     0.170000       12.0110           0
      7958 MEMB     65       QMPE     HS       HAL1     0.900000E-01   1.00800           0
      7959 MEMB     65       QMPE     O21      OSL     -0.490000       15.9994           0
      7960 MEMB     65       QMPE     C21      CL       0.900000       12.0110           0
      7961 MEMB     65       QMPE     O22      OBL     -0.630000       15.9994           0
      7962 MEMB     65       QMPE     C22      CTL2    -0.220000       12.0110           0
      7963 MEMB     65       QMPE     H2R      HAL2     0.900000E-01   1.00800           0
      7964 MEMB     65       QMPE     H2S      HAL2     0.900000E-01   1.00800           0
      7965 MEMB     65       QMPE     C3       CTL2     0.800000E-01   12.0110           0
      7966 MEMB     65       QMPE     HX       HAL2     0.900000E-01   1.00800           0
      7967 MEMB     65       QMPE     HY       HAL2     0.900000E-01   1.00800           0
      7968 MEMB     65       QMPE     O31      OSL     -0.490000       15.9994           0
      7969 MEMB     65       QMPE     C31      CL       0.900000       12.0110           0
      7970 MEMB     65       QMPE     O32      OBL     -0.630000       15.9994           0
      7971 MEMB     65       QMPE     C32      CTL2    -0.220000       12.0110           0
      7972 MEMB     65       QMPE     H2X      HAL2     0.900000E-01   1.00800           0
      7973 MEMB     65       QMPE     H2Y      HAL2     0.900000E-01   1.00800           0
      7974 MEMB     65       QMPE     C23      CTL2    -0.180000       12.0110           0
      7975 MEMB     65       QMPE     H3R      HAL2     0.900000E-01   1.00800           0
      7976 MEMB     65       QMPE     H3S      HAL2     0.900000E-01   1.00800           0
      7977 MEMB     65       QMPE     C24      CTL2    -0.180000       12.0110           0
      7978 MEMB     65       QMPE     H4R      HAL2     0.900000E-01   1.00800           0
      7979 MEMB     65       QMPE     H4S      HAL2     0.900000E-01   1.00800           0
      7980 MEMB     65       QMPE     C25      CTL2    -0.180000       12.0110           0
      7981 MEMB     65       QMPE     H5R      HAL2     0.900000E-01   1.00800           0
      7982 MEMB     65       QMPE     H5S      HAL2     0.900000E-01   1.00800           0
      7983 MEMB     65       QMPE     C26      CTL2    -0.180000       12.0110           0
      7984 MEMB     65       QMPE     H6R      HAL2     0.900000E-01   1.00800           0
      7985 MEMB     65       QMPE     H6S      HAL2     0.900000E-01   1.00800           0
      7986 MEMB     65       QMPE     C27      CTL2    -0.180000       12.0110           0
      7987 MEMB     65       QMPE     H7R      HAL2     0.900000E-01   1.00800           0
      7988 MEMB     65       QMPE     H7S      HAL2     0.900000E-01   1.00800           0
      7989 MEMB     65       QMPE     C28      CTL2    -0.180000       12.0110           0
      7990 MEMB     65       QMPE     H8R      HAL2     0.900000E-01   1.00800           0
      7991 MEMB     65       QMPE     H8S      HAL2     0.900000E-01   1.00800           0
      7992 MEMB     65       QMPE     C29      CG3RC1  -0.900000E-01   12.0110           0
      7993 MEMB     65       QMPE     H9R      HGA1     0.900000E-01   1.00800           0
      7994 MEMB     65       QMPE     C217     CG3C31  -0.180000       12.0110           0
      7995 MEMB     65       QMPE     H17R     HGA2     0.900000E-01   1.00800           0
      7996 MEMB     65       QMPE     H17S     HGA2     0.900000E-01   1.00800           0
      7997 MEMB     65       QMPE     C210     CG3RC1  -0.900000E-01   12.0110           0
      7998 MEMB     65       QMPE     H10R     HGA1     0.900000E-01   1.00800           0
      7999 MEMB     65       QMPE     C211     CTL2    -0.180000       12.0110           0
      8000 MEMB     65       QMPE     H11R     HAL2     0.900000E-01   1.00800           0
      8001 MEMB     65       QMPE     H11S     HAL2     0.900000E-01   1.00800           0
      8002 MEMB     65       QMPE     C212     CTL2    -0.180000       12.0110           0
      8003 MEMB     65       QMPE     H12R     HAL2     0.900000E-01   1.00800           0
      8004 MEMB     65       QMPE     H12S     HAL2     0.900000E-01   1.00800           0
      8005 MEMB     65       QMPE     C213     CTL2    -0.180000       12.0110           0
      8006 MEMB     65       QMPE     H13R     HAL2     0.900000E-01   1.00800           0
      8007 MEMB     65       QMPE     H13S     HAL2     0.900000E-01   1.00800           0
      8008 MEMB     65       QMPE     C214     CTL2    -0.180000       12.0110           0
      8009 MEMB     65       QMPE     H14R     HAL2     0.900000E-01   1.00800           0
      8010 MEMB     65       QMPE     H14S     HAL2     0.900000E-01   1.00800           0
      8011 MEMB     65       QMPE     C215     CTL2    -0.180000       12.0110           0
      8012 MEMB     65       QMPE     H15R     HAL2     0.900000E-01   1.00800           0
      8013 MEMB     65       QMPE     H15S     HAL2     0.900000E-01   1.00800           0
      8014 MEMB     65       QMPE     C216     CTL3    -0.270000       12.0110           0
      8015 MEMB     65       QMPE     H16R     HAL3     0.900000E-01   1.00800           0
      8016 MEMB     65       QMPE     H16S     HAL3     0.900000E-01   1.00800           0
      8017 MEMB     65       QMPE     H16T     HAL3     0.900000E-01   1.00800           0
      8018 MEMB     65       QMPE     C33      CTL2    -0.180000       12.0110           0
      8019 MEMB     65       QMPE     H3X      HAL2     0.900000E-01   1.00800           0
      8020 MEMB     65       QMPE     H3Y      HAL2     0.900000E-01   1.00800           0
      8021 MEMB     65       QMPE     C34      CTL2    -0.180000       12.0110           0
      8022 MEMB     65       QMPE     H4X      HAL2     0.900000E-01   1.00800           0
      8023 MEMB     65       QMPE     H4Y      HAL2     0.900000E-01   1.00800           0
      8024 MEMB     65       QMPE     C35      CTL2    -0.180000       12.0110           0
      8025 MEMB     65       QMPE     H5X      HAL2     0.900000E-01   1.00800           0
      8026 MEMB     65       QMPE     H5Y      HAL2     0.900000E-01   1.00800           0
      8027 MEMB     65       QMPE     C36      CTL2    -0.180000       12.0110           0
      8028 MEMB     65       QMPE     H6X      HAL2     0.900000E-01   1.00800           0
      8029 MEMB     65       QMPE     H6Y      HAL2     0.900000E-01   1.00800           0
      8030 MEMB     65       QMPE     C37      CTL2    -0.180000       12.0110           0
      8031 MEMB     65       QMPE     H7X      HAL2     0.900000E-01   1.00800           0
      8032 MEMB     65       QMPE     H7Y      HAL2     0.900000E-01   1.00800           0
      8033 MEMB     65       QMPE     C38      CTL2    -0.180000       12.0110           0
      8034 MEMB     65       QMPE     H8X      HAL2     0.900000E-01   1.00800           0
      8035 MEMB     65       QMPE     H8Y      HAL2     0.900000E-01   1.00800           0
      8036 MEMB     65       QMPE     C39      CTL2    -0.180000       12.0110           0
      8037 MEMB     65       QMPE     H9X      HAL2     0.900000E-01   1.00800           0
      8038 MEMB     65       QMPE     H9Y      HAL2     0.900000E-01   1.00800           0
      8039 MEMB     65       QMPE     C310     CTL2    -0.180000       12.0110           0
      8040 MEMB     65       QMPE     H10X     HAL2     0.900000E-01   1.00800           0
      8041 MEMB     65       QMPE     H10Y     HAL2     0.900000E-01   1.00800           0
      8042 MEMB     65       QMPE     C311     CTL2    -0.180000       12.0110           0
      8043 MEMB     65       QMPE     H11X     HAL2     0.900000E-01   1.00800           0
      8044 MEMB     65       QMPE     H11Y     HAL2     0.900000E-01   1.00800           0
      8045 MEMB     65       QMPE     C312     CTL2    -0.180000       12.0110           0
      8046 MEMB     65       QMPE     H12X     HAL2     0.900000E-01   1.00800           0
      8047 MEMB     65       QMPE     H12Y     HAL2     0.900000E-01   1.00800           0
      8048 MEMB     65       QMPE     C313     CTL2    -0.180000       12.0110           0
      8049 MEMB     65       QMPE     H13X     HAL2     0.900000E-01   1.00800           0
      8050 MEMB     65       QMPE     H13Y     HAL2     0.900000E-01   1.00800           0
      8051 MEMB     65       QMPE     C314     CTL2    -0.180000       12.0110           0
      8052 MEMB     65       QMPE     H14X     HAL2     0.900000E-01   1.00800           0
      8053 MEMB     65       QMPE     H14Y     HAL2     0.900000E-01   1.00800           0
      8054 MEMB     65       QMPE     C315     CTL3    -0.270000       12.0110           0
      8055 MEMB     65       QMPE     H15X     HAL3     0.900000E-01   1.00800           0
      8056 MEMB     65       QMPE     H15Y     HAL3     0.900000E-01   1.00800           0
      8057 MEMB     65       QMPE     H15Z     HAL3     0.900000E-01   1.00800           0
      8058 MEMB     66       OYPE     N        NH3L    -0.300000       14.0070           0
      8059 MEMB     66       OYPE     HN1      HCL      0.330000       1.00800           0
      8060 MEMB     66       OYPE     HN2      HCL      0.330000       1.00800           0
      8061 MEMB     66       OYPE     HN3      HCL      0.330000       1.00800           0
      8062 MEMB     66       OYPE     C12      CTL2     0.130000       12.0110           0
      8063 MEMB     66       OYPE     H12A     HAL2     0.900000E-01   1.00800           0
      8064 MEMB     66       OYPE     H12B     HAL2     0.900000E-01   1.00800           0
      8065 MEMB     66       OYPE     C11      CTL2    -0.800000E-01   12.0110           0
      8066 MEMB     66       OYPE     H11A     HAL2     0.900000E-01   1.00800           0
      8067 MEMB     66       OYPE     H11B     HAL2     0.900000E-01   1.00800           0
      8068 MEMB     66       OYPE     P        PL        1.50000       30.9740           0
      8069 MEMB     66       OYPE     O13      O2L     -0.780000       15.9994           0
      8070 MEMB     66       OYPE     O14      O2L     -0.780000       15.9994           0
      8071 MEMB     66       OYPE     O11      OSLP    -0.570000       15.9994           0
      8072 MEMB     66       OYPE     O12      OSLP    -0.570000       15.9994           0
      8073 MEMB     66       OYPE     C1       CTL2    -0.800000E-01   12.0110           0
      8074 MEMB     66       OYPE     HA       HAL2     0.900000E-01   1.00800           0
      8075 MEMB     66       OYPE     HB       HAL2     0.900000E-01   1.00800           0
      8076 MEMB     66       OYPE     C2       CTL1     0.170000       12.0110           0
      8077 MEMB     66       OYPE     HS       HAL1     0.900000E-01   1.00800           0
      8078 MEMB     66       OYPE     O21      OSL     -0.490000       15.9994           0
      8079 MEMB     66       OYPE     C21      CL       0.900000       12.0110           0
      8080 MEMB     66       OYPE     O22      OBL     -0.630000       15.9994           0
      8081 MEMB     66       OYPE     C22      CTL2    -0.220000       12.0110           0
      8082 MEMB     66       OYPE     H2R      HAL2     0.900000E-01   1.00800           0
      8083 MEMB     66       OYPE     H2S      HAL2     0.900000E-01   1.00800           0
      8084 MEMB     66       OYPE     C3       CTL2     0.800000E-01   12.0110           0
      8085 MEMB     66       OYPE     HX       HAL2     0.900000E-01   1.00800           0
      8086 MEMB     66       OYPE     HY       HAL2     0.900000E-01   1.00800           0
      8087 MEMB     66       OYPE     O31      OSL     -0.490000       15.9994           0
      8088 MEMB     66       OYPE     C31      CL       0.900000       12.0110           0
      8089 MEMB     66       OYPE     O32      OBL     -0.630000       15.9994           0
      8090 MEMB     66       OYPE     C32      CTL2    -0.220000       12.0110           0
      8091 MEMB     66       OYPE     H2X      HAL2     0.900000E-01   1.00800           0
      8092 MEMB     66       OYPE     H2Y      HAL2     0.900000E-01   1.00800           0
      8093 MEMB     66       OYPE     C23      CTL2    -0.180000       12.0110           0
      8094 MEMB     66       OYPE     H3R      HAL2     0.900000E-01   1.00800           0
      8095 MEMB     66       OYPE     H3S      HAL2     0.900000E-01   1.00800           0
      8096 MEMB     66       OYPE     C24      CTL2    -0.180000       12.0110           0
      8097 MEMB     66       OYPE     H4R      HAL2     0.900000E-01   1.00800           0
      8098 MEMB     66       OYPE     H4S      HAL2     0.900000E-01   1.00800           0
      8099 MEMB     66       OYPE     C25      CTL2    -0.180000       12.0110           0
      8100 MEMB     66       OYPE     H5R      HAL2     0.900000E-01   1.00800           0
      8101 MEMB     66       OYPE     H5S      HAL2     0.900000E-01   1.00800           0
      8102 MEMB     66       OYPE     C26      CTL2    -0.180000       12.0110           0
      8103 MEMB     66       OYPE     H6R      HAL2     0.900000E-01   1.00800           0
      8104 MEMB     66       OYPE     H6S      HAL2     0.900000E-01   1.00800           0
      8105 MEMB     66       OYPE     C27      CTL2    -0.180000       12.0110           0
      8106 MEMB     66       OYPE     H7R      HAL2     0.900000E-01   1.00800           0
      8107 MEMB     66       OYPE     H7S      HAL2     0.900000E-01   1.00800           0
      8108 MEMB     66       OYPE     C28      CTL2    -0.180000       12.0110           0
      8109 MEMB     66       OYPE     H8R      HAL2     0.900000E-01   1.00800           0
      8110 MEMB     66       OYPE     H8S      HAL2     0.900000E-01   1.00800           0
      8111 MEMB     66       OYPE     C29      CEL1    -0.150000       12.0110           0
      8112 MEMB     66       OYPE     H9R      HEL1     0.150000       1.00800           0
      8113 MEMB     66       OYPE     C210     CEL1    -0.150000       12.0110           0
      8114 MEMB     66       OYPE     H10R     HEL1     0.150000       1.00800           0
      8115 MEMB     66       OYPE     C211     CTL2    -0.180000       12.0110           0
      8116 MEMB     66       OYPE     H11R     HAL2     0.900000E-01   1.00800           0
      8117 MEMB     66       OYPE     H11S     HAL2     0.900000E-01   1.00800           0
      8118 MEMB     66       OYPE     C212     CTL2    -0.180000       12.0110           0
      8119 MEMB     66       OYPE     H12R     HAL2     0.900000E-01   1.00800           0
      8120 MEMB     66       OYPE     H12S     HAL2     0.900000E-01   1.00800           0
      8121 MEMB     66       OYPE     C213     CTL2    -0.180000       12.0110           0
      8122 MEMB     66       OYPE     H13R     HAL2     0.900000E-01   1.00800           0
      8123 MEMB     66       OYPE     H13S     HAL2     0.900000E-01   1.00800           0
      8124 MEMB     66       OYPE     C214     CTL2    -0.180000       12.0110           0
      8125 MEMB     66       OYPE     H14R     HAL2     0.900000E-01   1.00800           0
      8126 MEMB     66       OYPE     H14S     HAL2     0.900000E-01   1.00800           0
      8127 MEMB     66       OYPE     C215     CTL2    -0.180000       12.0110           0
      8128 MEMB     66       OYPE     H15R     HAL2     0.900000E-01   1.00800           0
      8129 MEMB     66       OYPE     H15S     HAL2     0.900000E-01   1.00800           0
      8130 MEMB     66       OYPE     C216     CTL3    -0.270000       12.0110           0
      8131 MEMB     66       OYPE     H16R     HAL3     0.900000E-01   1.00800           0
      8132 MEMB     66       OYPE     H16S     HAL3     0.900000E-01   1.00800           0
      8133 MEMB     66       OYPE     H16T     HAL3     0.900000E-01   1.00800           0
      8134 MEMB     66       OYPE     C33      CTL2    -0.180000       12.0110           0
      8135 MEMB     66       OYPE     H3X      HAL2     0.900000E-01   1.00800           0
      8136 MEMB     66       OYPE     H3Y      HAL2     0.900000E-01   1.00800           0
      8137 MEMB     66       OYPE     C34      CTL2    -0.180000       12.0110           0
      8138 MEMB     66       OYPE     H4X      HAL2     0.900000E-01   1.00800           0
      8139 MEMB     66       OYPE     H4Y      HAL2     0.900000E-01   1.00800           0
      8140 MEMB     66       OYPE     C35      CTL2    -0.180000       12.0110           0
      8141 MEMB     66       OYPE     H5X      HAL2     0.900000E-01   1.00800           0
      8142 MEMB     66       OYPE     H5Y      HAL2     0.900000E-01   1.00800           0
      8143 MEMB     66       OYPE     C36      CTL2    -0.180000       12.0110           0
      8144 MEMB     66       OYPE     H6X      HAL2     0.900000E-01   1.00800           0
      8145 MEMB     66       OYPE     H6Y      HAL2     0.900000E-01   1.00800           0
      8146 MEMB     66       OYPE     C37      CTL2    -0.180000       12.0110           0
      8147 MEMB     66       OYPE     H7X      HAL2     0.900000E-01   1.00800           0
      8148 MEMB     66       OYPE     H7Y      HAL2     0.900000E-01   1.00800           0
      8149 MEMB     66       OYPE     C38      CTL2    -0.180000       12.0110           0
      8150 MEMB     66       OYPE     H8X      HAL2     0.900000E-01   1.00800           0
      8151 MEMB     66       OYPE     H8Y      HAL2     0.900000E-01   1.00800           0
      8152 MEMB     66       OYPE     C39      CEL1    -0.150000       12.0110           0
      8153 MEMB     66       OYPE     H9X      HEL1     0.150000       1.00800           0
      8154 MEMB     66       OYPE     C310     CEL1    -0.150000       12.0110           0
      8155 MEMB     66       OYPE     H10X     HEL1     0.150000       1.00800           0
      8156 MEMB     66       OYPE     C311     CTL2    -0.180000       12.0110           0
      8157 MEMB     66       OYPE     H11X     HAL2     0.900000E-01   1.00800           0
      8158 MEMB     66       OYPE     H11Y     HAL2     0.900000E-01   1.00800           0
      8159 MEMB     66       OYPE     C312     CTL2    -0.180000       12.0110           0
      8160 MEMB     66       OYPE     H12X     HAL2     0.900000E-01   1.00800           0
      8161 MEMB     66       OYPE     H12Y     HAL2     0.900000E-01   1.00800           0
      8162 MEMB     66       OYPE     C313     CTL2    -0.180000       12.0110           0
      8163 MEMB     66       OYPE     H13X     HAL2     0.900000E-01   1.00800           0
      8164 MEMB     66       OYPE     H13Y     HAL2     0.900000E-01   1.00800           0
      8165 MEMB     66       OYPE     C314     CTL2    -0.180000       12.0110           0
      8166 MEMB     66       OYPE     H14X     HAL2     0.900000E-01   1.00800           0
      8167 MEMB     66       OYPE     H14Y     HAL2     0.900000E-01   1.00800           0
      8168 MEMB     66       OYPE     C315     CTL2    -0.180000       12.0110           0
      8169 MEMB     66       OYPE     H15X     HAL2     0.900000E-01   1.00800           0
      8170 MEMB     66       OYPE     H15Y     HAL2     0.900000E-01   1.00800           0
      8171 MEMB     66       OYPE     C316     CTL2    -0.180000       12.0110           0
      8172 MEMB     66       OYPE     H16X     HAL2     0.900000E-01   1.00800           0
      8173 MEMB     66       OYPE     H16Y     HAL2     0.900000E-01   1.00800           0
      8174 MEMB     66       OYPE     C317     CTL2    -0.180000       12.0110           0
      8175 MEMB     66       OYPE     H17X     HAL2     0.900000E-01   1.00800           0
      8176 MEMB     66       OYPE     H17Y     HAL2     0.900000E-01   1.00800           0
      8177 MEMB     66       OYPE     C318     CTL3    -0.270000       12.0110           0
      8178 MEMB     66       OYPE     H18X     HAL3     0.900000E-01   1.00800           0
      8179 MEMB     66       OYPE     H18Y     HAL3     0.900000E-01   1.00800           0
      8180 MEMB     66       OYPE     H18Z     HAL3     0.900000E-01   1.00800           0
      8181 MEMB     67       PMPE     N        NH3L    -0.300000       14.0070           0
      8182 MEMB     67       PMPE     HN1      HCL      0.330000       1.00800           0
      8183 MEMB     67       PMPE     HN2      HCL      0.330000       1.00800           0
      8184 MEMB     67       PMPE     HN3      HCL      0.330000       1.00800           0
      8185 MEMB     67       PMPE     C12      CTL2     0.130000       12.0110           0
      8186 MEMB     67       PMPE     H12A     HAL2     0.900000E-01   1.00800           0
      8187 MEMB     67       PMPE     H12B     HAL2     0.900000E-01   1.00800           0
      8188 MEMB     67       PMPE     C11      CTL2    -0.800000E-01   12.0110           0
      8189 MEMB     67       PMPE     H11A     HAL2     0.900000E-01   1.00800           0
      8190 MEMB     67       PMPE     H11B     HAL2     0.900000E-01   1.00800           0
      8191 MEMB     67       PMPE     P        PL        1.50000       30.9740           0
      8192 MEMB     67       PMPE     O13      O2L     -0.780000       15.9994           0
      8193 MEMB     67       PMPE     O14      O2L     -0.780000       15.9994           0
      8194 MEMB     67       PMPE     O11      OSLP    -0.570000       15.9994           0
      8195 MEMB     67       PMPE     O12      OSLP    -0.570000       15.9994           0
      8196 MEMB     67       PMPE     C1       CTL2    -0.800000E-01   12.0110           0
      8197 MEMB     67       PMPE     HA       HAL2     0.900000E-01   1.00800           0
      8198 MEMB     67       PMPE     HB       HAL2     0.900000E-01   1.00800           0
      8199 MEMB     67       PMPE     C2       CTL1     0.170000       12.0110           0
      8200 MEMB     67       PMPE     HS       HAL1     0.900000E-01   1.00800           0
      8201 MEMB     67       PMPE     O21      OSL     -0.490000       15.9994           0
      8202 MEMB     67       PMPE     C21      CL       0.900000       12.0110           0
      8203 MEMB     67       PMPE     O22      OBL     -0.630000       15.9994           0
      8204 MEMB     67       PMPE     C22      CTL2    -0.220000       12.0110           0
      8205 MEMB     67       PMPE     H2R      HAL2     0.900000E-01   1.00800           0
      8206 MEMB     67       PMPE     H2S      HAL2     0.900000E-01   1.00800           0
      8207 MEMB     67       PMPE     C3       CTL2     0.800000E-01   12.0110           0
      8208 MEMB     67       PMPE     HX       HAL2     0.900000E-01   1.00800           0
      8209 MEMB     67       PMPE     HY       HAL2     0.900000E-01   1.00800           0
      8210 MEMB     67       PMPE     O31      OSL     -0.490000       15.9994           0
      8211 MEMB     67       PMPE     C31      CL       0.900000       12.0110           0
      8212 MEMB     67       PMPE     O32      OBL     -0.630000       15.9994           0
      8213 MEMB     67       PMPE     C32      CTL2    -0.220000       12.0110           0
      8214 MEMB     67       PMPE     H2X      HAL2     0.900000E-01   1.00800           0
      8215 MEMB     67       PMPE     H2Y      HAL2     0.900000E-01   1.00800           0
      8216 MEMB     67       PMPE     C23      CTL2    -0.180000       12.0110           0
      8217 MEMB     67       PMPE     H3R      HAL2     0.900000E-01   1.00800           0
      8218 MEMB     67       PMPE     H3S      HAL2     0.900000E-01   1.00800           0
      8219 MEMB     67       PMPE     C24      CTL2    -0.180000       12.0110           0
      8220 MEMB     67       PMPE     H4R      HAL2     0.900000E-01   1.00800           0
      8221 MEMB     67       PMPE     H4S      HAL2     0.900000E-01   1.00800           0
      8222 MEMB     67       PMPE     C25      CTL2    -0.180000       12.0110           0
      8223 MEMB     67       PMPE     H5R      HAL2     0.900000E-01   1.00800           0
      8224 MEMB     67       PMPE     H5S      HAL2     0.900000E-01   1.00800           0
      8225 MEMB     67       PMPE     C26      CTL2    -0.180000       12.0110           0
      8226 MEMB     67       PMPE     H6R      HAL2     0.900000E-01   1.00800           0
      8227 MEMB     67       PMPE     H6S      HAL2     0.900000E-01   1.00800           0
      8228 MEMB     67       PMPE     C27      CTL2    -0.180000       12.0110           0
      8229 MEMB     67       PMPE     H7R      HAL2     0.900000E-01   1.00800           0
      8230 MEMB     67       PMPE     H7S      HAL2     0.900000E-01   1.00800           0
      8231 MEMB     67       PMPE     C28      CTL2    -0.180000       12.0110           0
      8232 MEMB     67       PMPE     H8R      HAL2     0.900000E-01   1.00800           0
      8233 MEMB     67       PMPE     H8S      HAL2     0.900000E-01   1.00800           0
      8234 MEMB     67       PMPE     C29      CG3RC1  -0.900000E-01   12.0110           0
      8235 MEMB     67       PMPE     H9R      HGA1     0.900000E-01   1.00800           0
      8236 MEMB     67       PMPE     C217     CG3C31  -0.180000       12.0110           0
      8237 MEMB     67       PMPE     H17R     HGA2     0.900000E-01   1.00800           0
      8238 MEMB     67       PMPE     H17S     HGA2     0.900000E-01   1.00800           0
      8239 MEMB     67       PMPE     C210     CG3RC1  -0.900000E-01   12.0110           0
      8240 MEMB     67       PMPE     H10R     HGA1     0.900000E-01   1.00800           0
      8241 MEMB     67       PMPE     C211     CTL2    -0.180000       12.0110           0
      8242 MEMB     67       PMPE     H11R     HAL2     0.900000E-01   1.00800           0
      8243 MEMB     67       PMPE     H11S     HAL2     0.900000E-01   1.00800           0
      8244 MEMB     67       PMPE     C212     CTL2    -0.180000       12.0110           0
      8245 MEMB     67       PMPE     H12R     HAL2     0.900000E-01   1.00800           0
      8246 MEMB     67       PMPE     H12S     HAL2     0.900000E-01   1.00800           0
      8247 MEMB     67       PMPE     C213     CTL2    -0.180000       12.0110           0
      8248 MEMB     67       PMPE     H13R     HAL2     0.900000E-01   1.00800           0
      8249 MEMB     67       PMPE     H13S     HAL2     0.900000E-01   1.00800           0
      8250 MEMB     67       PMPE     C214     CTL2    -0.180000       12.0110           0
      8251 MEMB     67       PMPE     H14R     HAL2     0.900000E-01   1.00800           0
      8252 MEMB     67       PMPE     H14S     HAL2     0.900000E-01   1.00800           0
      8253 MEMB     67       PMPE     C215     CTL2    -0.180000       12.0110           0
      8254 MEMB     67       PMPE     H15R     HAL2     0.900000E-01   1.00800           0
      8255 MEMB     67       PMPE     H15S     HAL2     0.900000E-01   1.00800           0
      8256 MEMB     67       PMPE     C216     CTL3    -0.270000       12.0110           0
      8257 MEMB     67       PMPE     H16R     HAL3     0.900000E-01   1.00800           0
      8258 MEMB     67       PMPE     H16S     HAL3     0.900000E-01   1.00800           0
      8259 MEMB     67       PMPE     H16T     HAL3     0.900000E-01   1.00800           0
      8260 MEMB     67       PMPE     C33      CTL2    -0.180000       12.0110           0
      8261 MEMB     67       PMPE     H3X      HAL2     0.900000E-01   1.00800           0
      8262 MEMB     67       PMPE     H3Y      HAL2     0.900000E-01   1.00800           0
      8263 MEMB     67       PMPE     C34      CTL2    -0.180000       12.0110           0
      8264 MEMB     67       PMPE     H4X      HAL2     0.900000E-01   1.00800           0
      8265 MEMB     67       PMPE     H4Y      HAL2     0.900000E-01   1.00800           0
      8266 MEMB     67       PMPE     C35      CTL2    -0.180000       12.0110           0
      8267 MEMB     67       PMPE     H5X      HAL2     0.900000E-01   1.00800           0
      8268 MEMB     67       PMPE     H5Y      HAL2     0.900000E-01   1.00800           0
      8269 MEMB     67       PMPE     C36      CTL2    -0.180000       12.0110           0
      8270 MEMB     67       PMPE     H6X      HAL2     0.900000E-01   1.00800           0
      8271 MEMB     67       PMPE     H6Y      HAL2     0.900000E-01   1.00800           0
      8272 MEMB     67       PMPE     C37      CTL2    -0.180000       12.0110           0
      8273 MEMB     67       PMPE     H7X      HAL2     0.900000E-01   1.00800           0
      8274 MEMB     67       PMPE     H7Y      HAL2     0.900000E-01   1.00800           0
      8275 MEMB     67       PMPE     C38      CTL2    -0.180000       12.0110           0
      8276 MEMB     67       PMPE     H8X      HAL2     0.900000E-01   1.00800           0
      8277 MEMB     67       PMPE     H8Y      HAL2     0.900000E-01   1.00800           0
      8278 MEMB     67       PMPE     C39      CTL2    -0.180000       12.0110           0
      8279 MEMB     67       PMPE     H9X      HAL2     0.900000E-01   1.00800           0
      8280 MEMB     67       PMPE     H9Y      HAL2     0.900000E-01   1.00800           0
      8281 MEMB     67       PMPE     C310     CTL2    -0.180000       12.0110           0
      8282 MEMB     67       PMPE     H10X     HAL2     0.900000E-01   1.00800           0
      8283 MEMB     67       PMPE     H10Y     HAL2     0.900000E-01   1.00800           0
      8284 MEMB     67       PMPE     C311     CTL2    -0.180000       12.0110           0
      8285 MEMB     67       PMPE     H11X     HAL2     0.900000E-01   1.00800           0
      8286 MEMB     67       PMPE     H11Y     HAL2     0.900000E-01   1.00800           0
      8287 MEMB     67       PMPE     C312     CTL2    -0.180000       12.0110           0
      8288 MEMB     67       PMPE     H12X     HAL2     0.900000E-01   1.00800           0
      8289 MEMB     67       PMPE     H12Y     HAL2     0.900000E-01   1.00800           0
      8290 MEMB     67       PMPE     C313     CTL2    -0.180000       12.0110           0
      8291 MEMB     67       PMPE     H13X     HAL2     0.900000E-01   1.00800           0
      8292 MEMB     67       PMPE     H13Y     HAL2     0.900000E-01   1.00800           0
      8293 MEMB     67       PMPE     C314     CTL2    -0.180000       12.0110           0
      8294 MEMB     67       PMPE     H14X     HAL2     0.900000E-01   1.00800           0
      8295 MEMB     67       PMPE     H14Y     HAL2     0.900000E-01   1.00800           0
      8296 MEMB     67       PMPE     C315     CTL2    -0.180000       12.0110           0
      8297 MEMB     67       PMPE     H15X     HAL2     0.900000E-01   1.00800           0
      8298 MEMB     67       PMPE     H15Y     HAL2     0.900000E-01   1.00800           0
      8299 MEMB     67       PMPE     C316     CTL3    -0.270000       12.0110           0
      8300 MEMB     67       PMPE     H16X     HAL3     0.900000E-01   1.00800           0
      8301 MEMB     67       PMPE     H16Y     HAL3     0.900000E-01   1.00800           0
      8302 MEMB     67       PMPE     H16Z     HAL3     0.900000E-01   1.00800           0
      8303 MEMB     68       POPE     N        NH3L    -0.300000       14.0070           0
      8304 MEMB     68       POPE     HN1      HCL      0.330000       1.00800           0
      8305 MEMB     68       POPE     HN2      HCL      0.330000       1.00800           0
      8306 MEMB     68       POPE     HN3      HCL      0.330000       1.00800           0
      8307 MEMB     68       POPE     C12      CTL2     0.130000       12.0110           0
      8308 MEMB     68       POPE     H12A     HAL2     0.900000E-01   1.00800           0
      8309 MEMB     68       POPE     H12B     HAL2     0.900000E-01   1.00800           0
      8310 MEMB     68       POPE     C11      CTL2    -0.800000E-01   12.0110           0
      8311 MEMB     68       POPE     H11A     HAL2     0.900000E-01   1.00800           0
      8312 MEMB     68       POPE     H11B     HAL2     0.900000E-01   1.00800           0
      8313 MEMB     68       POPE     P        PL        1.50000       30.9740           0
      8314 MEMB     68       POPE     O13      O2L     -0.780000       15.9994           0
      8315 MEMB     68       POPE     O14      O2L     -0.780000       15.9994           0
      8316 MEMB     68       POPE     O11      OSLP    -0.570000       15.9994           0
      8317 MEMB     68       POPE     O12      OSLP    -0.570000       15.9994           0
      8318 MEMB     68       POPE     C1       CTL2    -0.800000E-01   12.0110           0
      8319 MEMB     68       POPE     HA       HAL2     0.900000E-01   1.00800           0
      8320 MEMB     68       POPE     HB       HAL2     0.900000E-01   1.00800           0
      8321 MEMB     68       POPE     C2       CTL1     0.170000       12.0110           0
      8322 MEMB     68       POPE     HS       HAL1     0.900000E-01   1.00800           0
      8323 MEMB     68       POPE     O21      OSL     -0.490000       15.9994           0
      8324 MEMB     68       POPE     C21      CL       0.900000       12.0110           0
      8325 MEMB     68       POPE     O22      OBL     -0.630000       15.9994           0
      8326 MEMB     68       POPE     C22      CTL2    -0.220000       12.0110           0
      8327 MEMB     68       POPE     H2R      HAL2     0.900000E-01   1.00800           0
      8328 MEMB     68       POPE     H2S      HAL2     0.900000E-01   1.00800           0
      8329 MEMB     68       POPE     C3       CTL2     0.800000E-01   12.0110           0
      8330 MEMB     68       POPE     HX       HAL2     0.900000E-01   1.00800           0
      8331 MEMB     68       POPE     HY       HAL2     0.900000E-01   1.00800           0
      8332 MEMB     68       POPE     O31      OSL     -0.490000       15.9994           0
      8333 MEMB     68       POPE     C31      CL       0.900000       12.0110           0
      8334 MEMB     68       POPE     O32      OBL     -0.630000       15.9994           0
      8335 MEMB     68       POPE     C32      CTL2    -0.220000       12.0110           0
      8336 MEMB     68       POPE     H2X      HAL2     0.900000E-01   1.00800           0
      8337 MEMB     68       POPE     H2Y      HAL2     0.900000E-01   1.00800           0
      8338 MEMB     68       POPE     C23      CTL2    -0.180000       12.0110           0
      8339 MEMB     68       POPE     H3R      HAL2     0.900000E-01   1.00800           0
      8340 MEMB     68       POPE     H3S      HAL2     0.900000E-01   1.00800           0
      8341 MEMB     68       POPE     C24      CTL2    -0.180000       12.0110           0
      8342 MEMB     68       POPE     H4R      HAL2     0.900000E-01   1.00800           0
      8343 MEMB     68       POPE     H4S      HAL2     0.900000E-01   1.00800           0
      8344 MEMB     68       POPE     C25      CTL2    -0.180000       12.0110           0
      8345 MEMB     68       POPE     H5R      HAL2     0.900000E-01   1.00800           0
      8346 MEMB     68       POPE     H5S      HAL2     0.900000E-01   1.00800           0
      8347 MEMB     68       POPE     C26      CTL2    -0.180000       12.0110           0
      8348 MEMB     68       POPE     H6R      HAL2     0.900000E-01   1.00800           0
      8349 MEMB     68       POPE     H6S      HAL2     0.900000E-01   1.00800           0
      8350 MEMB     68       POPE     C27      CTL2    -0.180000       12.0110           0
      8351 MEMB     68       POPE     H7R      HAL2     0.900000E-01   1.00800           0
      8352 MEMB     68       POPE     H7S      HAL2     0.900000E-01   1.00800           0
      8353 MEMB     68       POPE     C28      CTL2    -0.180000       12.0110           0
      8354 MEMB     68       POPE     H8R      HAL2     0.900000E-01   1.00800           0
      8355 MEMB     68       POPE     H8S      HAL2     0.900000E-01   1.00800           0
      8356 MEMB     68       POPE     C29      CEL1    -0.150000       12.0110           0
      8357 MEMB     68       POPE     H91      HEL1     0.150000       1.00800           0
      8358 MEMB     68       POPE     C210     CEL1    -0.150000       12.0110           0
      8359 MEMB     68       POPE     H101     HEL1     0.150000       1.00800           0
      8360 MEMB     68       POPE     C211     CTL2    -0.180000       12.0110           0
      8361 MEMB     68       POPE     H11R     HAL2     0.900000E-01   1.00800           0
      8362 MEMB     68       POPE     H11S     HAL2     0.900000E-01   1.00800           0
      8363 MEMB     68       POPE     C212     CTL2    -0.180000       12.0110           0
      8364 MEMB     68       POPE     H12R     HAL2     0.900000E-01   1.00800           0
      8365 MEMB     68       POPE     H12S     HAL2     0.900000E-01   1.00800           0
      8366 MEMB     68       POPE     C213     CTL2    -0.180000       12.0110           0
      8367 MEMB     68       POPE     H13R     HAL2     0.900000E-01   1.00800           0
      8368 MEMB     68       POPE     H13S     HAL2     0.900000E-01   1.00800           0
      8369 MEMB     68       POPE     C214     CTL2    -0.180000       12.0110           0
      8370 MEMB     68       POPE     H14R     HAL2     0.900000E-01   1.00800           0
      8371 MEMB     68       POPE     H14S     HAL2     0.900000E-01   1.00800           0
      8372 MEMB     68       POPE     C215     CTL2    -0.180000       12.0110           0
      8373 MEMB     68       POPE     H15R     HAL2     0.900000E-01   1.00800           0
      8374 MEMB     68       POPE     H15S     HAL2     0.900000E-01   1.00800           0
      8375 MEMB     68       POPE     C216     CTL2    -0.180000       12.0110           0
      8376 MEMB     68       POPE     H16R     HAL2     0.900000E-01   1.00800           0
      8377 MEMB     68       POPE     H16S     HAL2     0.900000E-01   1.00800           0
      8378 MEMB     68       POPE     C217     CTL2    -0.180000       12.0110           0
      8379 MEMB     68       POPE     H17R     HAL2     0.900000E-01   1.00800           0
      8380 MEMB     68       POPE     H17S     HAL2     0.900000E-01   1.00800           0
      8381 MEMB     68       POPE     C218     CTL3    -0.270000       12.0110           0
      8382 MEMB     68       POPE     H18R     HAL3     0.900000E-01   1.00800           0
      8383 MEMB     68       POPE     H18S     HAL3     0.900000E-01   1.00800           0
      8384 MEMB     68       POPE     H18T     HAL3     0.900000E-01   1.00800           0
      8385 MEMB     68       POPE     C33      CTL2    -0.180000       12.0110           0
      8386 MEMB     68       POPE     H3X      HAL2     0.900000E-01   1.00800           0
      8387 MEMB     68       POPE     H3Y      HAL2     0.900000E-01   1.00800           0
      8388 MEMB     68       POPE     C34      CTL2    -0.180000       12.0110           0
      8389 MEMB     68       POPE     H4X      HAL2     0.900000E-01   1.00800           0
      8390 MEMB     68       POPE     H4Y      HAL2     0.900000E-01   1.00800           0
      8391 MEMB     68       POPE     C35      CTL2    -0.180000       12.0110           0
      8392 MEMB     68       POPE     H5X      HAL2     0.900000E-01   1.00800           0
      8393 MEMB     68       POPE     H5Y      HAL2     0.900000E-01   1.00800           0
      8394 MEMB     68       POPE     C36      CTL2    -0.180000       12.0110           0
      8395 MEMB     68       POPE     H6X      HAL2     0.900000E-01   1.00800           0
      8396 MEMB     68       POPE     H6Y      HAL2     0.900000E-01   1.00800           0
      8397 MEMB     68       POPE     C37      CTL2    -0.180000       12.0110           0
      8398 MEMB     68       POPE     H7X      HAL2     0.900000E-01   1.00800           0
      8399 MEMB     68       POPE     H7Y      HAL2     0.900000E-01   1.00800           0
      8400 MEMB     68       POPE     C38      CTL2    -0.180000       12.0110           0
      8401 MEMB     68       POPE     H8X      HAL2     0.900000E-01   1.00800           0
      8402 MEMB     68       POPE     H8Y      HAL2     0.900000E-01   1.00800           0
      8403 MEMB     68       POPE     C39      CTL2    -0.180000       12.0110           0
      8404 MEMB     68       POPE     H9X      HAL2     0.900000E-01   1.00800           0
      8405 MEMB     68       POPE     H9Y      HAL2     0.900000E-01   1.00800           0
      8406 MEMB     68       POPE     C310     CTL2    -0.180000       12.0110           0
      8407 MEMB     68       POPE     H10X     HAL2     0.900000E-01   1.00800           0
      8408 MEMB     68       POPE     H10Y     HAL2     0.900000E-01   1.00800           0
      8409 MEMB     68       POPE     C311     CTL2    -0.180000       12.0110           0
      8410 MEMB     68       POPE     H11X     HAL2     0.900000E-01   1.00800           0
      8411 MEMB     68       POPE     H11Y     HAL2     0.900000E-01   1.00800           0
      8412 MEMB     68       POPE     C312     CTL2    -0.180000       12.0110           0
      8413 MEMB     68       POPE     H12X     HAL2     0.900000E-01   1.00800           0
      8414 MEMB     68       POPE     H12Y     HAL2     0.900000E-01   1.00800           0
      8415 MEMB     68       POPE     C313     CTL2    -0.180000       12.0110           0
      8416 MEMB     68       POPE     H13X     HAL2     0.900000E-01   1.00800           0
      8417 MEMB     68       POPE     H13Y     HAL2     0.900000E-01   1.00800           0
      8418 MEMB     68       POPE     C314     CTL2    -0.180000       12.0110           0
      8419 MEMB     68       POPE     H14X     HAL2     0.900000E-01   1.00800           0
      8420 MEMB     68       POPE     H14Y     HAL2     0.900000E-01   1.00800           0
      8421 MEMB     68       POPE     C315     CTL2    -0.180000       12.0110           0
      8422 MEMB     68       POPE     H15X     HAL2     0.900000E-01   1.00800           0
      8423 MEMB     68       POPE     H15Y     HAL2     0.900000E-01   1.00800           0
      8424 MEMB     68       POPE     C316     CTL3    -0.270000       12.0110           0
      8425 MEMB     68       POPE     H16X     HAL3     0.900000E-01   1.00800           0
      8426 MEMB     68       POPE     H16Y     HAL3     0.900000E-01   1.00800           0
      8427 MEMB     68       POPE     H16Z     HAL3     0.900000E-01   1.00800           0
      8428 MEMB     69       PMPE     N        NH3L    -0.300000       14.0070           0
      8429 MEMB     69       PMPE     HN1      HCL      0.330000       1.00800           0
      8430 MEMB     69       PMPE     HN2      HCL      0.330000       1.00800           0
      8431 MEMB     69       PMPE     HN3      HCL      0.330000       1.00800           0
      8432 MEMB     69       PMPE     C12      CTL2     0.130000       12.0110           0
      8433 MEMB     69       PMPE     H12A     HAL2     0.900000E-01   1.00800           0
      8434 MEMB     69       PMPE     H12B     HAL2     0.900000E-01   1.00800           0
      8435 MEMB     69       PMPE     C11      CTL2    -0.800000E-01   12.0110           0
      8436 MEMB     69       PMPE     H11A     HAL2     0.900000E-01   1.00800           0
      8437 MEMB     69       PMPE     H11B     HAL2     0.900000E-01   1.00800           0
      8438 MEMB     69       PMPE     P        PL        1.50000       30.9740           0
      8439 MEMB     69       PMPE     O13      O2L     -0.780000       15.9994           0
      8440 MEMB     69       PMPE     O14      O2L     -0.780000       15.9994           0
      8441 MEMB     69       PMPE     O11      OSLP    -0.570000       15.9994           0
      8442 MEMB     69       PMPE     O12      OSLP    -0.570000       15.9994           0
      8443 MEMB     69       PMPE     C1       CTL2    -0.800000E-01   12.0110           0
      8444 MEMB     69       PMPE     HA       HAL2     0.900000E-01   1.00800           0
      8445 MEMB     69       PMPE     HB       HAL2     0.900000E-01   1.00800           0
      8446 MEMB     69       PMPE     C2       CTL1     0.170000       12.0110           0
      8447 MEMB     69       PMPE     HS       HAL1     0.900000E-01   1.00800           0
      8448 MEMB     69       PMPE     O21      OSL     -0.490000       15.9994           0
      8449 MEMB     69       PMPE     C21      CL       0.900000       12.0110           0
      8450 MEMB     69       PMPE     O22      OBL     -0.630000       15.9994           0
      8451 MEMB     69       PMPE     C22      CTL2    -0.220000       12.0110           0
      8452 MEMB     69       PMPE     H2R      HAL2     0.900000E-01   1.00800           0
      8453 MEMB     69       PMPE     H2S      HAL2     0.900000E-01   1.00800           0
      8454 MEMB     69       PMPE     C3       CTL2     0.800000E-01   12.0110           0
      8455 MEMB     69       PMPE     HX       HAL2     0.900000E-01   1.00800           0
      8456 MEMB     69       PMPE     HY       HAL2     0.900000E-01   1.00800           0
      8457 MEMB     69       PMPE     O31      OSL     -0.490000       15.9994           0
      8458 MEMB     69       PMPE     C31      CL       0.900000       12.0110           0
      8459 MEMB     69       PMPE     O32      OBL     -0.630000       15.9994           0
      8460 MEMB     69       PMPE     C32      CTL2    -0.220000       12.0110           0
      8461 MEMB     69       PMPE     H2X      HAL2     0.900000E-01   1.00800           0
      8462 MEMB     69       PMPE     H2Y      HAL2     0.900000E-01   1.00800           0
      8463 MEMB     69       PMPE     C23      CTL2    -0.180000       12.0110           0
      8464 MEMB     69       PMPE     H3R      HAL2     0.900000E-01   1.00800           0
      8465 MEMB     69       PMPE     H3S      HAL2     0.900000E-01   1.00800           0
      8466 MEMB     69       PMPE     C24      CTL2    -0.180000       12.0110           0
      8467 MEMB     69       PMPE     H4R      HAL2     0.900000E-01   1.00800           0
      8468 MEMB     69       PMPE     H4S      HAL2     0.900000E-01   1.00800           0
      8469 MEMB     69       PMPE     C25      CTL2    -0.180000       12.0110           0
      8470 MEMB     69       PMPE     H5R      HAL2     0.900000E-01   1.00800           0
      8471 MEMB     69       PMPE     H5S      HAL2     0.900000E-01   1.00800           0
      8472 MEMB     69       PMPE     C26      CTL2    -0.180000       12.0110           0
      8473 MEMB     69       PMPE     H6R      HAL2     0.900000E-01   1.00800           0
      8474 MEMB     69       PMPE     H6S      HAL2     0.900000E-01   1.00800           0
      8475 MEMB     69       PMPE     C27      CTL2    -0.180000       12.0110           0
      8476 MEMB     69       PMPE     H7R      HAL2     0.900000E-01   1.00800           0
      8477 MEMB     69       PMPE     H7S      HAL2     0.900000E-01   1.00800           0
      8478 MEMB     69       PMPE     C28      CTL2    -0.180000       12.0110           0
      8479 MEMB     69       PMPE     H8R      HAL2     0.900000E-01   1.00800           0
      8480 MEMB     69       PMPE     H8S      HAL2     0.900000E-01   1.00800           0
      8481 MEMB     69       PMPE     C29      CG3RC1  -0.900000E-01   12.0110           0
      8482 MEMB     69       PMPE     H9R      HGA1     0.900000E-01   1.00800           0
      8483 MEMB     69       PMPE     C217     CG3C31  -0.180000       12.0110           0
      8484 MEMB     69       PMPE     H17R     HGA2     0.900000E-01   1.00800           0
      8485 MEMB     69       PMPE     H17S     HGA2     0.900000E-01   1.00800           0
      8486 MEMB     69       PMPE     C210     CG3RC1  -0.900000E-01   12.0110           0
      8487 MEMB     69       PMPE     H10R     HGA1     0.900000E-01   1.00800           0
      8488 MEMB     69       PMPE     C211     CTL2    -0.180000       12.0110           0
      8489 MEMB     69       PMPE     H11R     HAL2     0.900000E-01   1.00800           0
      8490 MEMB     69       PMPE     H11S     HAL2     0.900000E-01   1.00800           0
      8491 MEMB     69       PMPE     C212     CTL2    -0.180000       12.0110           0
      8492 MEMB     69       PMPE     H12R     HAL2     0.900000E-01   1.00800           0
      8493 MEMB     69       PMPE     H12S     HAL2     0.900000E-01   1.00800           0
      8494 MEMB     69       PMPE     C213     CTL2    -0.180000       12.0110           0
      8495 MEMB     69       PMPE     H13R     HAL2     0.900000E-01   1.00800           0
      8496 MEMB     69       PMPE     H13S     HAL2     0.900000E-01   1.00800           0
      8497 MEMB     69       PMPE     C214     CTL2    -0.180000       12.0110           0
      8498 MEMB     69       PMPE     H14R     HAL2     0.900000E-01   1.00800           0
      8499 MEMB     69       PMPE     H14S     HAL2     0.900000E-01   1.00800           0
      8500 MEMB     69       PMPE     C215     CTL2    -0.180000       12.0110           0
      8501 MEMB     69       PMPE     H15R     HAL2     0.900000E-01   1.00800           0
      8502 MEMB     69       PMPE     H15S     HAL2     0.900000E-01   1.00800           0
      8503 MEMB     69       PMPE     C216     CTL3    -0.270000       12.0110           0
      8504 MEMB     69       PMPE     H16R     HAL3     0.900000E-01   1.00800           0
      8505 MEMB     69       PMPE     H16S     HAL3     0.900000E-01   1.00800           0
      8506 MEMB     69       PMPE     H16T     HAL3     0.900000E-01   1.00800           0
      8507 MEMB     69       PMPE     C33      CTL2    -0.180000       12.0110           0
      8508 MEMB     69       PMPE     H3X      HAL2     0.900000E-01   1.00800           0
      8509 MEMB     69       PMPE     H3Y      HAL2     0.900000E-01   1.00800           0
      8510 MEMB     69       PMPE     C34      CTL2    -0.180000       12.0110           0
      8511 MEMB     69       PMPE     H4X      HAL2     0.900000E-01   1.00800           0
      8512 MEMB     69       PMPE     H4Y      HAL2     0.900000E-01   1.00800           0
      8513 MEMB     69       PMPE     C35      CTL2    -0.180000       12.0110           0
      8514 MEMB     69       PMPE     H5X      HAL2     0.900000E-01   1.00800           0
      8515 MEMB     69       PMPE     H5Y      HAL2     0.900000E-01   1.00800           0
      8516 MEMB     69       PMPE     C36      CTL2    -0.180000       12.0110           0
      8517 MEMB     69       PMPE     H6X      HAL2     0.900000E-01   1.00800           0
      8518 MEMB     69       PMPE     H6Y      HAL2     0.900000E-01   1.00800           0
      8519 MEMB     69       PMPE     C37      CTL2    -0.180000       12.0110           0
      8520 MEMB     69       PMPE     H7X      HAL2     0.900000E-01   1.00800           0
      8521 MEMB     69       PMPE     H7Y      HAL2     0.900000E-01   1.00800           0
      8522 MEMB     69       PMPE     C38      CTL2    -0.180000       12.0110           0
      8523 MEMB     69       PMPE     H8X      HAL2     0.900000E-01   1.00800           0
      8524 MEMB     69       PMPE     H8Y      HAL2     0.900000E-01   1.00800           0
      8525 MEMB     69       PMPE     C39      CTL2    -0.180000       12.0110           0
      8526 MEMB     69       PMPE     H9X      HAL2     0.900000E-01   1.00800           0
      8527 MEMB     69       PMPE     H9Y      HAL2     0.900000E-01   1.00800           0
      8528 MEMB     69       PMPE     C310     CTL2    -0.180000       12.0110           0
      8529 MEMB     69       PMPE     H10X     HAL2     0.900000E-01   1.00800           0
      8530 MEMB     69       PMPE     H10Y     HAL2     0.900000E-01   1.00800           0
      8531 MEMB     69       PMPE     C311     CTL2    -0.180000       12.0110           0
      8532 MEMB     69       PMPE     H11X     HAL2     0.900000E-01   1.00800           0
      8533 MEMB     69       PMPE     H11Y     HAL2     0.900000E-01   1.00800           0
      8534 MEMB     69       PMPE     C312     CTL2    -0.180000       12.0110           0
      8535 MEMB     69       PMPE     H12X     HAL2     0.900000E-01   1.00800           0
      8536 MEMB     69       PMPE     H12Y     HAL2     0.900000E-01   1.00800           0
      8537 MEMB     69       PMPE     C313     CTL2    -0.180000       12.0110           0
      8538 MEMB     69       PMPE     H13X     HAL2     0.900000E-01   1.00800           0
      8539 MEMB     69       PMPE     H13Y     HAL2     0.900000E-01   1.00800           0
      8540 MEMB     69       PMPE     C314     CTL2    -0.180000       12.0110           0
      8541 MEMB     69       PMPE     H14X     HAL2     0.900000E-01   1.00800           0
      8542 MEMB     69       PMPE     H14Y     HAL2     0.900000E-01   1.00800           0
      8543 MEMB     69       PMPE     C315     CTL2    -0.180000       12.0110           0
      8544 MEMB     69       PMPE     H15X     HAL2     0.900000E-01   1.00800           0
      8545 MEMB     69       PMPE     H15Y     HAL2     0.900000E-01   1.00800           0
      8546 MEMB     69       PMPE     C316     CTL3    -0.270000       12.0110           0
      8547 MEMB     69       PMPE     H16X     HAL3     0.900000E-01   1.00800           0
      8548 MEMB     69       PMPE     H16Y     HAL3     0.900000E-01   1.00800           0
      8549 MEMB     69       PMPE     H16Z     HAL3     0.900000E-01   1.00800           0
      8550 MEMB     70       PMPG     C13      CTL2     0.500000E-01   12.0110           0
      8551 MEMB     70       PMPG     H13A     HAL2     0.900000E-01   1.00800           0
      8552 MEMB     70       PMPG     H13B     HAL2     0.900000E-01   1.00800           0
      8553 MEMB     70       PMPG     OC3      OHL     -0.660000       15.9994           0
      8554 MEMB     70       PMPG     HO3      HOL      0.430000       1.00800           0
      8555 MEMB     70       PMPG     C12      CTL1     0.140000       12.0110           0
      8556 MEMB     70       PMPG     H12A     HAL1     0.900000E-01   1.00800           0
      8557 MEMB     70       PMPG     OC2      OHL     -0.660000       15.9994           0
      8558 MEMB     70       PMPG     HO2      HOL      0.430000       1.00800           0
      8559 MEMB     70       PMPG     C11      CTL2    -0.800000E-01   12.0110           0
      8560 MEMB     70       PMPG     H11A     HAL2     0.900000E-01   1.00800           0
      8561 MEMB     70       PMPG     H11B     HAL2     0.900000E-01   1.00800           0
      8562 MEMB     70       PMPG     P        PL        1.50000       30.9740           0
      8563 MEMB     70       PMPG     O13      O2L     -0.780000       15.9994           0
      8564 MEMB     70       PMPG     O14      O2L     -0.780000       15.9994           0
      8565 MEMB     70       PMPG     O11      OSLP    -0.570000       15.9994           0
      8566 MEMB     70       PMPG     O12      OSLP    -0.570000       15.9994           0
      8567 MEMB     70       PMPG     C1       CTL2    -0.800000E-01   12.0110           0
      8568 MEMB     70       PMPG     HA       HAL2     0.900000E-01   1.00800           0
      8569 MEMB     70       PMPG     HB       HAL2     0.900000E-01   1.00800           0
      8570 MEMB     70       PMPG     C2       CTL1     0.170000       12.0110           0
      8571 MEMB     70       PMPG     HS       HAL1     0.900000E-01   1.00800           0
      8572 MEMB     70       PMPG     O21      OSL     -0.490000       15.9994           0
      8573 MEMB     70       PMPG     C21      CL       0.900000       12.0110           0
      8574 MEMB     70       PMPG     O22      OBL     -0.630000       15.9994           0
      8575 MEMB     70       PMPG     C22      CTL2    -0.220000       12.0110           0
      8576 MEMB     70       PMPG     H2R      HAL2     0.900000E-01   1.00800           0
      8577 MEMB     70       PMPG     H2S      HAL2     0.900000E-01   1.00800           0
      8578 MEMB     70       PMPG     C3       CTL2     0.800000E-01   12.0110           0
      8579 MEMB     70       PMPG     HX       HAL2     0.900000E-01   1.00800           0
      8580 MEMB     70       PMPG     HY       HAL2     0.900000E-01   1.00800           0
      8581 MEMB     70       PMPG     O31      OSL     -0.490000       15.9994           0
      8582 MEMB     70       PMPG     C31      CL       0.900000       12.0110           0
      8583 MEMB     70       PMPG     O32      OBL     -0.630000       15.9994           0
      8584 MEMB     70       PMPG     C32      CTL2    -0.220000       12.0110           0
      8585 MEMB     70       PMPG     H2X      HAL2     0.900000E-01   1.00800           0
      8586 MEMB     70       PMPG     H2Y      HAL2     0.900000E-01   1.00800           0
      8587 MEMB     70       PMPG     C23      CTL2    -0.180000       12.0110           0
      8588 MEMB     70       PMPG     H3R      HAL2     0.900000E-01   1.00800           0
      8589 MEMB     70       PMPG     H3S      HAL2     0.900000E-01   1.00800           0
      8590 MEMB     70       PMPG     C24      CTL2    -0.180000       12.0110           0
      8591 MEMB     70       PMPG     H4R      HAL2     0.900000E-01   1.00800           0
      8592 MEMB     70       PMPG     H4S      HAL2     0.900000E-01   1.00800           0
      8593 MEMB     70       PMPG     C25      CTL2    -0.180000       12.0110           0
      8594 MEMB     70       PMPG     H5R      HAL2     0.900000E-01   1.00800           0
      8595 MEMB     70       PMPG     H5S      HAL2     0.900000E-01   1.00800           0
      8596 MEMB     70       PMPG     C26      CTL2    -0.180000       12.0110           0
      8597 MEMB     70       PMPG     H6R      HAL2     0.900000E-01   1.00800           0
      8598 MEMB     70       PMPG     H6S      HAL2     0.900000E-01   1.00800           0
      8599 MEMB     70       PMPG     C27      CTL2    -0.180000       12.0110           0
      8600 MEMB     70       PMPG     H7R      HAL2     0.900000E-01   1.00800           0
      8601 MEMB     70       PMPG     H7S      HAL2     0.900000E-01   1.00800           0
      8602 MEMB     70       PMPG     C28      CTL2    -0.180000       12.0110           0
      8603 MEMB     70       PMPG     H8R      HAL2     0.900000E-01   1.00800           0
      8604 MEMB     70       PMPG     H8S      HAL2     0.900000E-01   1.00800           0
      8605 MEMB     70       PMPG     C29      CG3RC1  -0.900000E-01   12.0110           0
      8606 MEMB     70       PMPG     H9R      HGA1     0.900000E-01   1.00800           0
      8607 MEMB     70       PMPG     C217     CG3C31  -0.180000       12.0110           0
      8608 MEMB     70       PMPG     H17R     HGA2     0.900000E-01   1.00800           0
      8609 MEMB     70       PMPG     H17S     HGA2     0.900000E-01   1.00800           0
      8610 MEMB     70       PMPG     C210     CG3RC1  -0.900000E-01   12.0110           0
      8611 MEMB     70       PMPG     H10R     HGA1     0.900000E-01   1.00800           0
      8612 MEMB     70       PMPG     C211     CTL2    -0.180000       12.0110           0
      8613 MEMB     70       PMPG     H11R     HAL2     0.900000E-01   1.00800           0
      8614 MEMB     70       PMPG     H11S     HAL2     0.900000E-01   1.00800           0
      8615 MEMB     70       PMPG     C212     CTL2    -0.180000       12.0110           0
      8616 MEMB     70       PMPG     H12R     HAL2     0.900000E-01   1.00800           0
      8617 MEMB     70       PMPG     H12S     HAL2     0.900000E-01   1.00800           0
      8618 MEMB     70       PMPG     C213     CTL2    -0.180000       12.0110           0
      8619 MEMB     70       PMPG     H13R     HAL2     0.900000E-01   1.00800           0
      8620 MEMB     70       PMPG     H13S     HAL2     0.900000E-01   1.00800           0
      8621 MEMB     70       PMPG     C214     CTL2    -0.180000       12.0110           0
      8622 MEMB     70       PMPG     H14R     HAL2     0.900000E-01   1.00800           0
      8623 MEMB     70       PMPG     H14S     HAL2     0.900000E-01   1.00800           0
      8624 MEMB     70       PMPG     C215     CTL2    -0.180000       12.0110           0
      8625 MEMB     70       PMPG     H15R     HAL2     0.900000E-01   1.00800           0
      8626 MEMB     70       PMPG     H15S     HAL2     0.900000E-01   1.00800           0
      8627 MEMB     70       PMPG     C216     CTL3    -0.270000       12.0110           0
      8628 MEMB     70       PMPG     H16R     HAL3     0.900000E-01   1.00800           0
      8629 MEMB     70       PMPG     H16S     HAL3     0.900000E-01   1.00800           0
      8630 MEMB     70       PMPG     H16T     HAL3     0.900000E-01   1.00800           0
      8631 MEMB     70       PMPG     C33      CTL2    -0.180000       12.0110           0
      8632 MEMB     70       PMPG     H3X      HAL2     0.900000E-01   1.00800           0
      8633 MEMB     70       PMPG     H3Y      HAL2     0.900000E-01   1.00800           0
      8634 MEMB     70       PMPG     C34      CTL2    -0.180000       12.0110           0
      8635 MEMB     70       PMPG     H4X      HAL2     0.900000E-01   1.00800           0
      8636 MEMB     70       PMPG     H4Y      HAL2     0.900000E-01   1.00800           0
      8637 MEMB     70       PMPG     C35      CTL2    -0.180000       12.0110           0
      8638 MEMB     70       PMPG     H5X      HAL2     0.900000E-01   1.00800           0
      8639 MEMB     70       PMPG     H5Y      HAL2     0.900000E-01   1.00800           0
      8640 MEMB     70       PMPG     C36      CTL2    -0.180000       12.0110           0
      8641 MEMB     70       PMPG     H6X      HAL2     0.900000E-01   1.00800           0
      8642 MEMB     70       PMPG     H6Y      HAL2     0.900000E-01   1.00800           0
      8643 MEMB     70       PMPG     C37      CTL2    -0.180000       12.0110           0
      8644 MEMB     70       PMPG     H7X      HAL2     0.900000E-01   1.00800           0
      8645 MEMB     70       PMPG     H7Y      HAL2     0.900000E-01   1.00800           0
      8646 MEMB     70       PMPG     C38      CTL2    -0.180000       12.0110           0
      8647 MEMB     70       PMPG     H8X      HAL2     0.900000E-01   1.00800           0
      8648 MEMB     70       PMPG     H8Y      HAL2     0.900000E-01   1.00800           0
      8649 MEMB     70       PMPG     C39      CTL2    -0.180000       12.0110           0
      8650 MEMB     70       PMPG     H9X      HAL2     0.900000E-01   1.00800           0
      8651 MEMB     70       PMPG     H9Y      HAL2     0.900000E-01   1.00800           0
      8652 MEMB     70       PMPG     C310     CTL2    -0.180000       12.0110           0
      8653 MEMB     70       PMPG     H10X     HAL2     0.900000E-01   1.00800           0
      8654 MEMB     70       PMPG     H10Y     HAL2     0.900000E-01   1.00800           0
      8655 MEMB     70       PMPG     C311     CTL2    -0.180000       12.0110           0
      8656 MEMB     70       PMPG     H11X     HAL2     0.900000E-01   1.00800           0
      8657 MEMB     70       PMPG     H11Y     HAL2     0.900000E-01   1.00800           0
      8658 MEMB     70       PMPG     C312     CTL2    -0.180000       12.0110           0
      8659 MEMB     70       PMPG     H12X     HAL2     0.900000E-01   1.00800           0
      8660 MEMB     70       PMPG     H12Y     HAL2     0.900000E-01   1.00800           0
      8661 MEMB     70       PMPG     C313     CTL2    -0.180000       12.0110           0
      8662 MEMB     70       PMPG     H13X     HAL2     0.900000E-01   1.00800           0
      8663 MEMB     70       PMPG     H13Y     HAL2     0.900000E-01   1.00800           0
      8664 MEMB     70       PMPG     C314     CTL2    -0.180000       12.0110           0
      8665 MEMB     70       PMPG     H14X     HAL2     0.900000E-01   1.00800           0
      8666 MEMB     70       PMPG     H14Y     HAL2     0.900000E-01   1.00800           0
      8667 MEMB     70       PMPG     C315     CTL2    -0.180000       12.0110           0
      8668 MEMB     70       PMPG     H15X     HAL2     0.900000E-01   1.00800           0
      8669 MEMB     70       PMPG     H15Y     HAL2     0.900000E-01   1.00800           0
      8670 MEMB     70       PMPG     C316     CTL3    -0.270000       12.0110           0
      8671 MEMB     70       PMPG     H16X     HAL3     0.900000E-01   1.00800           0
      8672 MEMB     70       PMPG     H16Y     HAL3     0.900000E-01   1.00800           0
      8673 MEMB     70       PMPG     H16Z     HAL3     0.900000E-01   1.00800           0
      8674 MEMB     71       OYPE     N        NH3L    -0.300000       14.0070           0
      8675 MEMB     71       OYPE     HN1      HCL      0.330000       1.00800           0
      8676 MEMB     71       OYPE     HN2      HCL      0.330000       1.00800           0
      8677 MEMB     71       OYPE     HN3      HCL      0.330000       1.00800           0
      8678 MEMB     71       OYPE     C12      CTL2     0.130000       12.0110           0
      8679 MEMB     71       OYPE     H12A     HAL2     0.900000E-01   1.00800           0
      8680 MEMB     71       OYPE     H12B     HAL2     0.900000E-01   1.00800           0
      8681 MEMB     71       OYPE     C11      CTL2    -0.800000E-01   12.0110           0
      8682 MEMB     71       OYPE     H11A     HAL2     0.900000E-01   1.00800           0
      8683 MEMB     71       OYPE     H11B     HAL2     0.900000E-01   1.00800           0
      8684 MEMB     71       OYPE     P        PL        1.50000       30.9740           0
      8685 MEMB     71       OYPE     O13      O2L     -0.780000       15.9994           0
      8686 MEMB     71       OYPE     O14      O2L     -0.780000       15.9994           0
      8687 MEMB     71       OYPE     O11      OSLP    -0.570000       15.9994           0
      8688 MEMB     71       OYPE     O12      OSLP    -0.570000       15.9994           0
      8689 MEMB     71       OYPE     C1       CTL2    -0.800000E-01   12.0110           0
      8690 MEMB     71       OYPE     HA       HAL2     0.900000E-01   1.00800           0
      8691 MEMB     71       OYPE     HB       HAL2     0.900000E-01   1.00800           0
      8692 MEMB     71       OYPE     C2       CTL1     0.170000       12.0110           0
      8693 MEMB     71       OYPE     HS       HAL1     0.900000E-01   1.00800           0
      8694 MEMB     71       OYPE     O21      OSL     -0.490000       15.9994           0
      8695 MEMB     71       OYPE     C21      CL       0.900000       12.0110           0
      8696 MEMB     71       OYPE     O22      OBL     -0.630000       15.9994           0
      8697 MEMB     71       OYPE     C22      CTL2    -0.220000       12.0110           0
      8698 MEMB     71       OYPE     H2R      HAL2     0.900000E-01   1.00800           0
      8699 MEMB     71       OYPE     H2S      HAL2     0.900000E-01   1.00800           0
      8700 MEMB     71       OYPE     C3       CTL2     0.800000E-01   12.0110           0
      8701 MEMB     71       OYPE     HX       HAL2     0.900000E-01   1.00800           0
      8702 MEMB     71       OYPE     HY       HAL2     0.900000E-01   1.00800           0
      8703 MEMB     71       OYPE     O31      OSL     -0.490000       15.9994           0
      8704 MEMB     71       OYPE     C31      CL       0.900000       12.0110           0
      8705 MEMB     71       OYPE     O32      OBL     -0.630000       15.9994           0
      8706 MEMB     71       OYPE     C32      CTL2    -0.220000       12.0110           0
      8707 MEMB     71       OYPE     H2X      HAL2     0.900000E-01   1.00800           0
      8708 MEMB     71       OYPE     H2Y      HAL2     0.900000E-01   1.00800           0
      8709 MEMB     71       OYPE     C23      CTL2    -0.180000       12.0110           0
      8710 MEMB     71       OYPE     H3R      HAL2     0.900000E-01   1.00800           0
      8711 MEMB     71       OYPE     H3S      HAL2     0.900000E-01   1.00800           0
      8712 MEMB     71       OYPE     C24      CTL2    -0.180000       12.0110           0
      8713 MEMB     71       OYPE     H4R      HAL2     0.900000E-01   1.00800           0
      8714 MEMB     71       OYPE     H4S      HAL2     0.900000E-01   1.00800           0
      8715 MEMB     71       OYPE     C25      CTL2    -0.180000       12.0110           0
      8716 MEMB     71       OYPE     H5R      HAL2     0.900000E-01   1.00800           0
      8717 MEMB     71       OYPE     H5S      HAL2     0.900000E-01   1.00800           0
      8718 MEMB     71       OYPE     C26      CTL2    -0.180000       12.0110           0
      8719 MEMB     71       OYPE     H6R      HAL2     0.900000E-01   1.00800           0
      8720 MEMB     71       OYPE     H6S      HAL2     0.900000E-01   1.00800           0
      8721 MEMB     71       OYPE     C27      CTL2    -0.180000       12.0110           0
      8722 MEMB     71       OYPE     H7R      HAL2     0.900000E-01   1.00800           0
      8723 MEMB     71       OYPE     H7S      HAL2     0.900000E-01   1.00800           0
      8724 MEMB     71       OYPE     C28      CTL2    -0.180000       12.0110           0
      8725 MEMB     71       OYPE     H8R      HAL2     0.900000E-01   1.00800           0
      8726 MEMB     71       OYPE     H8S      HAL2     0.900000E-01   1.00800           0
      8727 MEMB     71       OYPE     C29      CEL1    -0.150000       12.0110           0
      8728 MEMB     71       OYPE     H9R      HEL1     0.150000       1.00800           0
      8729 MEMB     71       OYPE     C210     CEL1    -0.150000       12.0110           0
      8730 MEMB     71       OYPE     H10R     HEL1     0.150000       1.00800           0
      8731 MEMB     71       OYPE     C211     CTL2    -0.180000       12.0110           0
      8732 MEMB     71       OYPE     H11R     HAL2     0.900000E-01   1.00800           0
      8733 MEMB     71       OYPE     H11S     HAL2     0.900000E-01   1.00800           0
      8734 MEMB     71       OYPE     C212     CTL2    -0.180000       12.0110           0
      8735 MEMB     71       OYPE     H12R     HAL2     0.900000E-01   1.00800           0
      8736 MEMB     71       OYPE     H12S     HAL2     0.900000E-01   1.00800           0
      8737 MEMB     71       OYPE     C213     CTL2    -0.180000       12.0110           0
      8738 MEMB     71       OYPE     H13R     HAL2     0.900000E-01   1.00800           0
      8739 MEMB     71       OYPE     H13S     HAL2     0.900000E-01   1.00800           0
      8740 MEMB     71       OYPE     C214     CTL2    -0.180000       12.0110           0
      8741 MEMB     71       OYPE     H14R     HAL2     0.900000E-01   1.00800           0
      8742 MEMB     71       OYPE     H14S     HAL2     0.900000E-01   1.00800           0
      8743 MEMB     71       OYPE     C215     CTL2    -0.180000       12.0110           0
      8744 MEMB     71       OYPE     H15R     HAL2     0.900000E-01   1.00800           0
      8745 MEMB     71       OYPE     H15S     HAL2     0.900000E-01   1.00800           0
      8746 MEMB     71       OYPE     C216     CTL3    -0.270000       12.0110           0
      8747 MEMB     71       OYPE     H16R     HAL3     0.900000E-01   1.00800           0
      8748 MEMB     71       OYPE     H16S     HAL3     0.900000E-01   1.00800           0
      8749 MEMB     71       OYPE     H16T     HAL3     0.900000E-01   1.00800           0
      8750 MEMB     71       OYPE     C33      CTL2    -0.180000       12.0110           0
      8751 MEMB     71       OYPE     H3X      HAL2     0.900000E-01   1.00800           0
      8752 MEMB     71       OYPE     H3Y      HAL2     0.900000E-01   1.00800           0
      8753 MEMB     71       OYPE     C34      CTL2    -0.180000       12.0110           0
      8754 MEMB     71       OYPE     H4X      HAL2     0.900000E-01   1.00800           0
      8755 MEMB     71       OYPE     H4Y      HAL2     0.900000E-01   1.00800           0
      8756 MEMB     71       OYPE     C35      CTL2    -0.180000       12.0110           0
      8757 MEMB     71       OYPE     H5X      HAL2     0.900000E-01   1.00800           0
      8758 MEMB     71       OYPE     H5Y      HAL2     0.900000E-01   1.00800           0
      8759 MEMB     71       OYPE     C36      CTL2    -0.180000       12.0110           0
      8760 MEMB     71       OYPE     H6X      HAL2     0.900000E-01   1.00800           0
      8761 MEMB     71       OYPE     H6Y      HAL2     0.900000E-01   1.00800           0
      8762 MEMB     71       OYPE     C37      CTL2    -0.180000       12.0110           0
      8763 MEMB     71       OYPE     H7X      HAL2     0.900000E-01   1.00800           0
      8764 MEMB     71       OYPE     H7Y      HAL2     0.900000E-01   1.00800           0
      8765 MEMB     71       OYPE     C38      CTL2    -0.180000       12.0110           0
      8766 MEMB     71       OYPE     H8X      HAL2     0.900000E-01   1.00800           0
      8767 MEMB     71       OYPE     H8Y      HAL2     0.900000E-01   1.00800           0
      8768 MEMB     71       OYPE     C39      CEL1    -0.150000       12.0110           0
      8769 MEMB     71       OYPE     H9X      HEL1     0.150000       1.00800           0
      8770 MEMB     71       OYPE     C310     CEL1    -0.150000       12.0110           0
      8771 MEMB     71       OYPE     H10X     HEL1     0.150000       1.00800           0
      8772 MEMB     71       OYPE     C311     CTL2    -0.180000       12.0110           0
      8773 MEMB     71       OYPE     H11X     HAL2     0.900000E-01   1.00800           0
      8774 MEMB     71       OYPE     H11Y     HAL2     0.900000E-01   1.00800           0
      8775 MEMB     71       OYPE     C312     CTL2    -0.180000       12.0110           0
      8776 MEMB     71       OYPE     H12X     HAL2     0.900000E-01   1.00800           0
      8777 MEMB     71       OYPE     H12Y     HAL2     0.900000E-01   1.00800           0
      8778 MEMB     71       OYPE     C313     CTL2    -0.180000       12.0110           0
      8779 MEMB     71       OYPE     H13X     HAL2     0.900000E-01   1.00800           0
      8780 MEMB     71       OYPE     H13Y     HAL2     0.900000E-01   1.00800           0
      8781 MEMB     71       OYPE     C314     CTL2    -0.180000       12.0110           0
      8782 MEMB     71       OYPE     H14X     HAL2     0.900000E-01   1.00800           0
      8783 MEMB     71       OYPE     H14Y     HAL2     0.900000E-01   1.00800           0
      8784 MEMB     71       OYPE     C315     CTL2    -0.180000       12.0110           0
      8785 MEMB     71       OYPE     H15X     HAL2     0.900000E-01   1.00800           0
      8786 MEMB     71       OYPE     H15Y     HAL2     0.900000E-01   1.00800           0
      8787 MEMB     71       OYPE     C316     CTL2    -0.180000       12.0110           0
      8788 MEMB     71       OYPE     H16X     HAL2     0.900000E-01   1.00800           0
      8789 MEMB     71       OYPE     H16Y     HAL2     0.900000E-01   1.00800           0
      8790 MEMB     71       OYPE     C317     CTL2    -0.180000       12.0110           0
      8791 MEMB     71       OYPE     H17X     HAL2     0.900000E-01   1.00800           0
      8792 MEMB     71       OYPE     H17Y     HAL2     0.900000E-01   1.00800           0
      8793 MEMB     71       OYPE     C318     CTL3    -0.270000       12.0110           0
      8794 MEMB     71       OYPE     H18X     HAL3     0.900000E-01   1.00800           0
      8795 MEMB     71       OYPE     H18Y     HAL3     0.900000E-01   1.00800           0
      8796 MEMB     71       OYPE     H18Z     HAL3     0.900000E-01   1.00800           0
      8797 MEMB     72       QMPE     N        NH3L    -0.300000       14.0070           0
      8798 MEMB     72       QMPE     HN1      HCL      0.330000       1.00800           0
      8799 MEMB     72       QMPE     HN2      HCL      0.330000       1.00800           0
      8800 MEMB     72       QMPE     HN3      HCL      0.330000       1.00800           0
      8801 MEMB     72       QMPE     C12      CTL2     0.130000       12.0110           0
      8802 MEMB     72       QMPE     H12A     HAL2     0.900000E-01   1.00800           0
      8803 MEMB     72       QMPE     H12B     HAL2     0.900000E-01   1.00800           0
      8804 MEMB     72       QMPE     C11      CTL2    -0.800000E-01   12.0110           0
      8805 MEMB     72       QMPE     H11A     HAL2     0.900000E-01   1.00800           0
      8806 MEMB     72       QMPE     H11B     HAL2     0.900000E-01   1.00800           0
      8807 MEMB     72       QMPE     P        PL        1.50000       30.9740           0
      8808 MEMB     72       QMPE     O13      O2L     -0.780000       15.9994           0
      8809 MEMB     72       QMPE     O14      O2L     -0.780000       15.9994           0
      8810 MEMB     72       QMPE     O11      OSLP    -0.570000       15.9994           0
      8811 MEMB     72       QMPE     O12      OSLP    -0.570000       15.9994           0
      8812 MEMB     72       QMPE     C1       CTL2    -0.800000E-01   12.0110           0
      8813 MEMB     72       QMPE     HA       HAL2     0.900000E-01   1.00800           0
      8814 MEMB     72       QMPE     HB       HAL2     0.900000E-01   1.00800           0
      8815 MEMB     72       QMPE     C2       CTL1     0.170000       12.0110           0
      8816 MEMB     72       QMPE     HS       HAL1     0.900000E-01   1.00800           0
      8817 MEMB     72       QMPE     O21      OSL     -0.490000       15.9994           0
      8818 MEMB     72       QMPE     C21      CL       0.900000       12.0110           0
      8819 MEMB     72       QMPE     O22      OBL     -0.630000       15.9994           0
      8820 MEMB     72       QMPE     C22      CTL2    -0.220000       12.0110           0
      8821 MEMB     72       QMPE     H2R      HAL2     0.900000E-01   1.00800           0
      8822 MEMB     72       QMPE     H2S      HAL2     0.900000E-01   1.00800           0
      8823 MEMB     72       QMPE     C3       CTL2     0.800000E-01   12.0110           0
      8824 MEMB     72       QMPE     HX       HAL2     0.900000E-01   1.00800           0
      8825 MEMB     72       QMPE     HY       HAL2     0.900000E-01   1.00800           0
      8826 MEMB     72       QMPE     O31      OSL     -0.490000       15.9994           0
      8827 MEMB     72       QMPE     C31      CL       0.900000       12.0110           0
      8828 MEMB     72       QMPE     O32      OBL     -0.630000       15.9994           0
      8829 MEMB     72       QMPE     C32      CTL2    -0.220000       12.0110           0
      8830 MEMB     72       QMPE     H2X      HAL2     0.900000E-01   1.00800           0
      8831 MEMB     72       QMPE     H2Y      HAL2     0.900000E-01   1.00800           0
      8832 MEMB     72       QMPE     C23      CTL2    -0.180000       12.0110           0
      8833 MEMB     72       QMPE     H3R      HAL2     0.900000E-01   1.00800           0
      8834 MEMB     72       QMPE     H3S      HAL2     0.900000E-01   1.00800           0
      8835 MEMB     72       QMPE     C24      CTL2    -0.180000       12.0110           0
      8836 MEMB     72       QMPE     H4R      HAL2     0.900000E-01   1.00800           0
      8837 MEMB     72       QMPE     H4S      HAL2     0.900000E-01   1.00800           0
      8838 MEMB     72       QMPE     C25      CTL2    -0.180000       12.0110           0
      8839 MEMB     72       QMPE     H5R      HAL2     0.900000E-01   1.00800           0
      8840 MEMB     72       QMPE     H5S      HAL2     0.900000E-01   1.00800           0
      8841 MEMB     72       QMPE     C26      CTL2    -0.180000       12.0110           0
      8842 MEMB     72       QMPE     H6R      HAL2     0.900000E-01   1.00800           0
      8843 MEMB     72       QMPE     H6S      HAL2     0.900000E-01   1.00800           0
      8844 MEMB     72       QMPE     C27      CTL2    -0.180000       12.0110           0
      8845 MEMB     72       QMPE     H7R      HAL2     0.900000E-01   1.00800           0
      8846 MEMB     72       QMPE     H7S      HAL2     0.900000E-01   1.00800           0
      8847 MEMB     72       QMPE     C28      CTL2    -0.180000       12.0110           0
      8848 MEMB     72       QMPE     H8R      HAL2     0.900000E-01   1.00800           0
      8849 MEMB     72       QMPE     H8S      HAL2     0.900000E-01   1.00800           0
      8850 MEMB     72       QMPE     C29      CG3RC1  -0.900000E-01   12.0110           0
      8851 MEMB     72       QMPE     H9R      HGA1     0.900000E-01   1.00800           0
      8852 MEMB     72       QMPE     C217     CG3C31  -0.180000       12.0110           0
      8853 MEMB     72       QMPE     H17R     HGA2     0.900000E-01   1.00800           0
      8854 MEMB     72       QMPE     H17S     HGA2     0.900000E-01   1.00800           0
      8855 MEMB     72       QMPE     C210     CG3RC1  -0.900000E-01   12.0110           0
      8856 MEMB     72       QMPE     H10R     HGA1     0.900000E-01   1.00800           0
      8857 MEMB     72       QMPE     C211     CTL2    -0.180000       12.0110           0
      8858 MEMB     72       QMPE     H11R     HAL2     0.900000E-01   1.00800           0
      8859 MEMB     72       QMPE     H11S     HAL2     0.900000E-01   1.00800           0
      8860 MEMB     72       QMPE     C212     CTL2    -0.180000       12.0110           0
      8861 MEMB     72       QMPE     H12R     HAL2     0.900000E-01   1.00800           0
      8862 MEMB     72       QMPE     H12S     HAL2     0.900000E-01   1.00800           0
      8863 MEMB     72       QMPE     C213     CTL2    -0.180000       12.0110           0
      8864 MEMB     72       QMPE     H13R     HAL2     0.900000E-01   1.00800           0
      8865 MEMB     72       QMPE     H13S     HAL2     0.900000E-01   1.00800           0
      8866 MEMB     72       QMPE     C214     CTL2    -0.180000       12.0110           0
      8867 MEMB     72       QMPE     H14R     HAL2     0.900000E-01   1.00800           0
      8868 MEMB     72       QMPE     H14S     HAL2     0.900000E-01   1.00800           0
      8869 MEMB     72       QMPE     C215     CTL2    -0.180000       12.0110           0
      8870 MEMB     72       QMPE     H15R     HAL2     0.900000E-01   1.00800           0
      8871 MEMB     72       QMPE     H15S     HAL2     0.900000E-01   1.00800           0
      8872 MEMB     72       QMPE     C216     CTL3    -0.270000       12.0110           0
      8873 MEMB     72       QMPE     H16R     HAL3     0.900000E-01   1.00800           0
      8874 MEMB     72       QMPE     H16S     HAL3     0.900000E-01   1.00800           0
      8875 MEMB     72       QMPE     H16T     HAL3     0.900000E-01   1.00800           0
      8876 MEMB     72       QMPE     C33      CTL2    -0.180000       12.0110           0
      8877 MEMB     72       QMPE     H3X      HAL2     0.900000E-01   1.00800           0
      8878 MEMB     72       QMPE     H3Y      HAL2     0.900000E-01   1.00800           0
      8879 MEMB     72       QMPE     C34      CTL2    -0.180000       12.0110           0
      8880 MEMB     72       QMPE     H4X      HAL2     0.900000E-01   1.00800           0
      8881 MEMB     72       QMPE     H4Y      HAL2     0.900000E-01   1.00800           0
      8882 MEMB     72       QMPE     C35      CTL2    -0.180000       12.0110           0
      8883 MEMB     72       QMPE     H5X      HAL2     0.900000E-01   1.00800           0
      8884 MEMB     72       QMPE     H5Y      HAL2     0.900000E-01   1.00800           0
      8885 MEMB     72       QMPE     C36      CTL2    -0.180000       12.0110           0
      8886 MEMB     72       QMPE     H6X      HAL2     0.900000E-01   1.00800           0
      8887 MEMB     72       QMPE     H6Y      HAL2     0.900000E-01   1.00800           0
      8888 MEMB     72       QMPE     C37      CTL2    -0.180000       12.0110           0
      8889 MEMB     72       QMPE     H7X      HAL2     0.900000E-01   1.00800           0
      8890 MEMB     72       QMPE     H7Y      HAL2     0.900000E-01   1.00800           0
      8891 MEMB     72       QMPE     C38      CTL2    -0.180000       12.0110           0
      8892 MEMB     72       QMPE     H8X      HAL2     0.900000E-01   1.00800           0
      8893 MEMB     72       QMPE     H8Y      HAL2     0.900000E-01   1.00800           0
      8894 MEMB     72       QMPE     C39      CTL2    -0.180000       12.0110           0
      8895 MEMB     72       QMPE     H9X      HAL2     0.900000E-01   1.00800           0
      8896 MEMB     72       QMPE     H9Y      HAL2     0.900000E-01   1.00800           0
      8897 MEMB     72       QMPE     C310     CTL2    -0.180000       12.0110           0
      8898 MEMB     72       QMPE     H10X     HAL2     0.900000E-01   1.00800           0
      8899 MEMB     72       QMPE     H10Y     HAL2     0.900000E-01   1.00800           0
      8900 MEMB     72       QMPE     C311     CTL2    -0.180000       12.0110           0
      8901 MEMB     72       QMPE     H11X     HAL2     0.900000E-01   1.00800           0
      8902 MEMB     72       QMPE     H11Y     HAL2     0.900000E-01   1.00800           0
      8903 MEMB     72       QMPE     C312     CTL2    -0.180000       12.0110           0
      8904 MEMB     72       QMPE     H12X     HAL2     0.900000E-01   1.00800           0
      8905 MEMB     72       QMPE     H12Y     HAL2     0.900000E-01   1.00800           0
      8906 MEMB     72       QMPE     C313     CTL2    -0.180000       12.0110           0
      8907 MEMB     72       QMPE     H13X     HAL2     0.900000E-01   1.00800           0
      8908 MEMB     72       QMPE     H13Y     HAL2     0.900000E-01   1.00800           0
      8909 MEMB     72       QMPE     C314     CTL2    -0.180000       12.0110           0
      8910 MEMB     72       QMPE     H14X     HAL2     0.900000E-01   1.00800           0
      8911 MEMB     72       QMPE     H14Y     HAL2     0.900000E-01   1.00800           0
      8912 MEMB     72       QMPE     C315     CTL3    -0.270000       12.0110           0
      8913 MEMB     72       QMPE     H15X     HAL3     0.900000E-01   1.00800           0
      8914 MEMB     72       QMPE     H15Y     HAL3     0.900000E-01   1.00800           0
      8915 MEMB     72       QMPE     H15Z     HAL3     0.900000E-01   1.00800           0
      8916 MEMB     73       PMPG     C13      CTL2     0.500000E-01   12.0110           0
      8917 MEMB     73       PMPG     H13A     HAL2     0.900000E-01   1.00800           0
      8918 MEMB     73       PMPG     H13B     HAL2     0.900000E-01   1.00800           0
      8919 MEMB     73       PMPG     OC3      OHL     -0.660000       15.9994           0
      8920 MEMB     73       PMPG     HO3      HOL      0.430000       1.00800           0
      8921 MEMB     73       PMPG     C12      CTL1     0.140000       12.0110           0
      8922 MEMB     73       PMPG     H12A     HAL1     0.900000E-01   1.00800           0
      8923 MEMB     73       PMPG     OC2      OHL     -0.660000       15.9994           0
      8924 MEMB     73       PMPG     HO2      HOL      0.430000       1.00800           0
      8925 MEMB     73       PMPG     C11      CTL2    -0.800000E-01   12.0110           0
      8926 MEMB     73       PMPG     H11A     HAL2     0.900000E-01   1.00800           0
      8927 MEMB     73       PMPG     H11B     HAL2     0.900000E-01   1.00800           0
      8928 MEMB     73       PMPG     P        PL        1.50000       30.9740           0
      8929 MEMB     73       PMPG     O13      O2L     -0.780000       15.9994           0
      8930 MEMB     73       PMPG     O14      O2L     -0.780000       15.9994           0
      8931 MEMB     73       PMPG     O11      OSLP    -0.570000       15.9994           0
      8932 MEMB     73       PMPG     O12      OSLP    -0.570000       15.9994           0
      8933 MEMB     73       PMPG     C1       CTL2    -0.800000E-01   12.0110           0
      8934 MEMB     73       PMPG     HA       HAL2     0.900000E-01   1.00800           0
      8935 MEMB     73       PMPG     HB       HAL2     0.900000E-01   1.00800           0
      8936 MEMB     73       PMPG     C2       CTL1     0.170000       12.0110           0
      8937 MEMB     73       PMPG     HS       HAL1     0.900000E-01   1.00800           0
      8938 MEMB     73       PMPG     O21      OSL     -0.490000       15.9994           0
      8939 MEMB     73       PMPG     C21      CL       0.900000       12.0110           0
      8940 MEMB     73       PMPG     O22      OBL     -0.630000       15.9994           0
      8941 MEMB     73       PMPG     C22      CTL2    -0.220000       12.0110           0
      8942 MEMB     73       PMPG     H2R      HAL2     0.900000E-01   1.00800           0
      8943 MEMB     73       PMPG     H2S      HAL2     0.900000E-01   1.00800           0
      8944 MEMB     73       PMPG     C3       CTL2     0.800000E-01   12.0110           0
      8945 MEMB     73       PMPG     HX       HAL2     0.900000E-01   1.00800           0
      8946 MEMB     73       PMPG     HY       HAL2     0.900000E-01   1.00800           0
      8947 MEMB     73       PMPG     O31      OSL     -0.490000       15.9994           0
      8948 MEMB     73       PMPG     C31      CL       0.900000       12.0110           0
      8949 MEMB     73       PMPG     O32      OBL     -0.630000       15.9994           0
      8950 MEMB     73       PMPG     C32      CTL2    -0.220000       12.0110           0
      8951 MEMB     73       PMPG     H2X      HAL2     0.900000E-01   1.00800           0
      8952 MEMB     73       PMPG     H2Y      HAL2     0.900000E-01   1.00800           0
      8953 MEMB     73       PMPG     C23      CTL2    -0.180000       12.0110           0
      8954 MEMB     73       PMPG     H3R      HAL2     0.900000E-01   1.00800           0
      8955 MEMB     73       PMPG     H3S      HAL2     0.900000E-01   1.00800           0
      8956 MEMB     73       PMPG     C24      CTL2    -0.180000       12.0110           0
      8957 MEMB     73       PMPG     H4R      HAL2     0.900000E-01   1.00800           0
      8958 MEMB     73       PMPG     H4S      HAL2     0.900000E-01   1.00800           0
      8959 MEMB     73       PMPG     C25      CTL2    -0.180000       12.0110           0
      8960 MEMB     73       PMPG     H5R      HAL2     0.900000E-01   1.00800           0
      8961 MEMB     73       PMPG     H5S      HAL2     0.900000E-01   1.00800           0
      8962 MEMB     73       PMPG     C26      CTL2    -0.180000       12.0110           0
      8963 MEMB     73       PMPG     H6R      HAL2     0.900000E-01   1.00800           0
      8964 MEMB     73       PMPG     H6S      HAL2     0.900000E-01   1.00800           0
      8965 MEMB     73       PMPG     C27      CTL2    -0.180000       12.0110           0
      8966 MEMB     73       PMPG     H7R      HAL2     0.900000E-01   1.00800           0
      8967 MEMB     73       PMPG     H7S      HAL2     0.900000E-01   1.00800           0
      8968 MEMB     73       PMPG     C28      CTL2    -0.180000       12.0110           0
      8969 MEMB     73       PMPG     H8R      HAL2     0.900000E-01   1.00800           0
      8970 MEMB     73       PMPG     H8S      HAL2     0.900000E-01   1.00800           0
      8971 MEMB     73       PMPG     C29      CG3RC1  -0.900000E-01   12.0110           0
      8972 MEMB     73       PMPG     H9R      HGA1     0.900000E-01   1.00800           0
      8973 MEMB     73       PMPG     C217     CG3C31  -0.180000       12.0110           0
      8974 MEMB     73       PMPG     H17R     HGA2     0.900000E-01   1.00800           0
      8975 MEMB     73       PMPG     H17S     HGA2     0.900000E-01   1.00800           0
      8976 MEMB     73       PMPG     C210     CG3RC1  -0.900000E-01   12.0110           0
      8977 MEMB     73       PMPG     H10R     HGA1     0.900000E-01   1.00800           0
      8978 MEMB     73       PMPG     C211     CTL2    -0.180000       12.0110           0
      8979 MEMB     73       PMPG     H11R     HAL2     0.900000E-01   1.00800           0
      8980 MEMB     73       PMPG     H11S     HAL2     0.900000E-01   1.00800           0
      8981 MEMB     73       PMPG     C212     CTL2    -0.180000       12.0110           0
      8982 MEMB     73       PMPG     H12R     HAL2     0.900000E-01   1.00800           0
      8983 MEMB     73       PMPG     H12S     HAL2     0.900000E-01   1.00800           0
      8984 MEMB     73       PMPG     C213     CTL2    -0.180000       12.0110           0
      8985 MEMB     73       PMPG     H13R     HAL2     0.900000E-01   1.00800           0
      8986 MEMB     73       PMPG     H13S     HAL2     0.900000E-01   1.00800           0
      8987 MEMB     73       PMPG     C214     CTL2    -0.180000       12.0110           0
      8988 MEMB     73       PMPG     H14R     HAL2     0.900000E-01   1.00800           0
      8989 MEMB     73       PMPG     H14S     HAL2     0.900000E-01   1.00800           0
      8990 MEMB     73       PMPG     C215     CTL2    -0.180000       12.0110           0
      8991 MEMB     73       PMPG     H15R     HAL2     0.900000E-01   1.00800           0
      8992 MEMB     73       PMPG     H15S     HAL2     0.900000E-01   1.00800           0
      8993 MEMB     73       PMPG     C216     CTL3    -0.270000       12.0110           0
      8994 MEMB     73       PMPG     H16R     HAL3     0.900000E-01   1.00800           0
      8995 MEMB     73       PMPG     H16S     HAL3     0.900000E-01   1.00800           0
      8996 MEMB     73       PMPG     H16T     HAL3     0.900000E-01   1.00800           0
      8997 MEMB     73       PMPG     C33      CTL2    -0.180000       12.0110           0
      8998 MEMB     73       PMPG     H3X      HAL2     0.900000E-01   1.00800           0
      8999 MEMB     73       PMPG     H3Y      HAL2     0.900000E-01   1.00800           0
      9000 MEMB     73       PMPG     C34      CTL2    -0.180000       12.0110           0
      9001 MEMB     73       PMPG     H4X      HAL2     0.900000E-01   1.00800           0
      9002 MEMB     73       PMPG     H4Y      HAL2     0.900000E-01   1.00800           0
      9003 MEMB     73       PMPG     C35      CTL2    -0.180000       12.0110           0
      9004 MEMB     73       PMPG     H5X      HAL2     0.900000E-01   1.00800           0
      9005 MEMB     73       PMPG     H5Y      HAL2     0.900000E-01   1.00800           0
      9006 MEMB     73       PMPG     C36      CTL2    -0.180000       12.0110           0
      9007 MEMB     73       PMPG     H6X      HAL2     0.900000E-01   1.00800           0
      9008 MEMB     73       PMPG     H6Y      HAL2     0.900000E-01   1.00800           0
      9009 MEMB     73       PMPG     C37      CTL2    -0.180000       12.0110           0
      9010 MEMB     73       PMPG     H7X      HAL2     0.900000E-01   1.00800           0
      9011 MEMB     73       PMPG     H7Y      HAL2     0.900000E-01   1.00800           0
      9012 MEMB     73       PMPG     C38      CTL2    -0.180000       12.0110           0
      9013 MEMB     73       PMPG     H8X      HAL2     0.900000E-01   1.00800           0
      9014 MEMB     73       PMPG     H8Y      HAL2     0.900000E-01   1.00800           0
      9015 MEMB     73       PMPG     C39      CTL2    -0.180000       12.0110           0
      9016 MEMB     73       PMPG     H9X      HAL2     0.900000E-01   1.00800           0
      9017 MEMB     73       PMPG     H9Y      HAL2     0.900000E-01   1.00800           0
      9018 MEMB     73       PMPG     C310     CTL2    -0.180000       12.0110           0
      9019 MEMB     73       PMPG     H10X     HAL2     0.900000E-01   1.00800           0
      9020 MEMB     73       PMPG     H10Y     HAL2     0.900000E-01   1.00800           0
      9021 MEMB     73       PMPG     C311     CTL2    -0.180000       12.0110           0
      9022 MEMB     73       PMPG     H11X     HAL2     0.900000E-01   1.00800           0
      9023 MEMB     73       PMPG     H11Y     HAL2     0.900000E-01   1.00800           0
      9024 MEMB     73       PMPG     C312     CTL2    -0.180000       12.0110           0
      9025 MEMB     73       PMPG     H12X     HAL2     0.900000E-01   1.00800           0
      9026 MEMB     73       PMPG     H12Y     HAL2     0.900000E-01   1.00800           0
      9027 MEMB     73       PMPG     C313     CTL2    -0.180000       12.0110           0
      9028 MEMB     73       PMPG     H13X     HAL2     0.900000E-01   1.00800           0
      9029 MEMB     73       PMPG     H13Y     HAL2     0.900000E-01   1.00800           0
      9030 MEMB     73       PMPG     C314     CTL2    -0.180000       12.0110           0
      9031 MEMB     73       PMPG     H14X     HAL2     0.900000E-01   1.00800           0
      9032 MEMB     73       PMPG     H14Y     HAL2     0.900000E-01   1.00800           0
      9033 MEMB     73       PMPG     C315     CTL2    -0.180000       12.0110           0
      9034 MEMB     73       PMPG     H15X     HAL2     0.900000E-01   1.00800           0
      9035 MEMB     73       PMPG     H15Y     HAL2     0.900000E-01   1.00800           0
      9036 MEMB     73       PMPG     C316     CTL3    -0.270000       12.0110           0
      9037 MEMB     73       PMPG     H16X     HAL3     0.900000E-01   1.00800           0
      9038 MEMB     73       PMPG     H16Y     HAL3     0.900000E-01   1.00800           0
      9039 MEMB     73       PMPG     H16Z     HAL3     0.900000E-01   1.00800           0
      9040 MEMB     74       POPE     N        NH3L    -0.300000       14.0070           0
      9041 MEMB     74       POPE     HN1      HCL      0.330000       1.00800           0
      9042 MEMB     74       POPE     HN2      HCL      0.330000       1.00800           0
      9043 MEMB     74       POPE     HN3      HCL      0.330000       1.00800           0
      9044 MEMB     74       POPE     C12      CTL2     0.130000       12.0110           0
      9045 MEMB     74       POPE     H12A     HAL2     0.900000E-01   1.00800           0
      9046 MEMB     74       POPE     H12B     HAL2     0.900000E-01   1.00800           0
      9047 MEMB     74       POPE     C11      CTL2    -0.800000E-01   12.0110           0
      9048 MEMB     74       POPE     H11A     HAL2     0.900000E-01   1.00800           0
      9049 MEMB     74       POPE     H11B     HAL2     0.900000E-01   1.00800           0
      9050 MEMB     74       POPE     P        PL        1.50000       30.9740           0
      9051 MEMB     74       POPE     O13      O2L     -0.780000       15.9994           0
      9052 MEMB     74       POPE     O14      O2L     -0.780000       15.9994           0
      9053 MEMB     74       POPE     O11      OSLP    -0.570000       15.9994           0
      9054 MEMB     74       POPE     O12      OSLP    -0.570000       15.9994           0
      9055 MEMB     74       POPE     C1       CTL2    -0.800000E-01   12.0110           0
      9056 MEMB     74       POPE     HA       HAL2     0.900000E-01   1.00800           0
      9057 MEMB     74       POPE     HB       HAL2     0.900000E-01   1.00800           0
      9058 MEMB     74       POPE     C2       CTL1     0.170000       12.0110           0
      9059 MEMB     74       POPE     HS       HAL1     0.900000E-01   1.00800           0
      9060 MEMB     74       POPE     O21      OSL     -0.490000       15.9994           0
      9061 MEMB     74       POPE     C21      CL       0.900000       12.0110           0
      9062 MEMB     74       POPE     O22      OBL     -0.630000       15.9994           0
      9063 MEMB     74       POPE     C22      CTL2    -0.220000       12.0110           0
      9064 MEMB     74       POPE     H2R      HAL2     0.900000E-01   1.00800           0
      9065 MEMB     74       POPE     H2S      HAL2     0.900000E-01   1.00800           0
      9066 MEMB     74       POPE     C3       CTL2     0.800000E-01   12.0110           0
      9067 MEMB     74       POPE     HX       HAL2     0.900000E-01   1.00800           0
      9068 MEMB     74       POPE     HY       HAL2     0.900000E-01   1.00800           0
      9069 MEMB     74       POPE     O31      OSL     -0.490000       15.9994           0
      9070 MEMB     74       POPE     C31      CL       0.900000       12.0110           0
      9071 MEMB     74       POPE     O32      OBL     -0.630000       15.9994           0
      9072 MEMB     74       POPE     C32      CTL2    -0.220000       12.0110           0
      9073 MEMB     74       POPE     H2X      HAL2     0.900000E-01   1.00800           0
      9074 MEMB     74       POPE     H2Y      HAL2     0.900000E-01   1.00800           0
      9075 MEMB     74       POPE     C23      CTL2    -0.180000       12.0110           0
      9076 MEMB     74       POPE     H3R      HAL2     0.900000E-01   1.00800           0
      9077 MEMB     74       POPE     H3S      HAL2     0.900000E-01   1.00800           0
      9078 MEMB     74       POPE     C24      CTL2    -0.180000       12.0110           0
      9079 MEMB     74       POPE     H4R      HAL2     0.900000E-01   1.00800           0
      9080 MEMB     74       POPE     H4S      HAL2     0.900000E-01   1.00800           0
      9081 MEMB     74       POPE     C25      CTL2    -0.180000       12.0110           0
      9082 MEMB     74       POPE     H5R      HAL2     0.900000E-01   1.00800           0
      9083 MEMB     74       POPE     H5S      HAL2     0.900000E-01   1.00800           0
      9084 MEMB     74       POPE     C26      CTL2    -0.180000       12.0110           0
      9085 MEMB     74       POPE     H6R      HAL2     0.900000E-01   1.00800           0
      9086 MEMB     74       POPE     H6S      HAL2     0.900000E-01   1.00800           0
      9087 MEMB     74       POPE     C27      CTL2    -0.180000       12.0110           0
      9088 MEMB     74       POPE     H7R      HAL2     0.900000E-01   1.00800           0
      9089 MEMB     74       POPE     H7S      HAL2     0.900000E-01   1.00800           0
      9090 MEMB     74       POPE     C28      CTL2    -0.180000       12.0110           0
      9091 MEMB     74       POPE     H8R      HAL2     0.900000E-01   1.00800           0
      9092 MEMB     74       POPE     H8S      HAL2     0.900000E-01   1.00800           0
      9093 MEMB     74       POPE     C29      CEL1    -0.150000       12.0110           0
      9094 MEMB     74       POPE     H91      HEL1     0.150000       1.00800           0
      9095 MEMB     74       POPE     C210     CEL1    -0.150000       12.0110           0
      9096 MEMB     74       POPE     H101     HEL1     0.150000       1.00800           0
      9097 MEMB     74       POPE     C211     CTL2    -0.180000       12.0110           0
      9098 MEMB     74       POPE     H11R     HAL2     0.900000E-01   1.00800           0
      9099 MEMB     74       POPE     H11S     HAL2     0.900000E-01   1.00800           0
      9100 MEMB     74       POPE     C212     CTL2    -0.180000       12.0110           0
      9101 MEMB     74       POPE     H12R     HAL2     0.900000E-01   1.00800           0
      9102 MEMB     74       POPE     H12S     HAL2     0.900000E-01   1.00800           0
      9103 MEMB     74       POPE     C213     CTL2    -0.180000       12.0110           0
      9104 MEMB     74       POPE     H13R     HAL2     0.900000E-01   1.00800           0
      9105 MEMB     74       POPE     H13S     HAL2     0.900000E-01   1.00800           0
      9106 MEMB     74       POPE     C214     CTL2    -0.180000       12.0110           0
      9107 MEMB     74       POPE     H14R     HAL2     0.900000E-01   1.00800           0
      9108 MEMB     74       POPE     H14S     HAL2     0.900000E-01   1.00800           0
      9109 MEMB     74       POPE     C215     CTL2    -0.180000       12.0110           0
      9110 MEMB     74       POPE     H15R     HAL2     0.900000E-01   1.00800           0
      9111 MEMB     74       POPE     H15S     HAL2     0.900000E-01   1.00800           0
      9112 MEMB     74       POPE     C216     CTL2    -0.180000       12.0110           0
      9113 MEMB     74       POPE     H16R     HAL2     0.900000E-01   1.00800           0
      9114 MEMB     74       POPE     H16S     HAL2     0.900000E-01   1.00800           0
      9115 MEMB     74       POPE     C217     CTL2    -0.180000       12.0110           0
      9116 MEMB     74       POPE     H17R     HAL2     0.900000E-01   1.00800           0
      9117 MEMB     74       POPE     H17S     HAL2     0.900000E-01   1.00800           0
      9118 MEMB     74       POPE     C218     CTL3    -0.270000       12.0110           0
      9119 MEMB     74       POPE     H18R     HAL3     0.900000E-01   1.00800           0
      9120 MEMB     74       POPE     H18S     HAL3     0.900000E-01   1.00800           0
      9121 MEMB     74       POPE     H18T     HAL3     0.900000E-01   1.00800           0
      9122 MEMB     74       POPE     C33      CTL2    -0.180000       12.0110           0
      9123 MEMB     74       POPE     H3X      HAL2     0.900000E-01   1.00800           0
      9124 MEMB     74       POPE     H3Y      HAL2     0.900000E-01   1.00800           0
      9125 MEMB     74       POPE     C34      CTL2    -0.180000       12.0110           0
      9126 MEMB     74       POPE     H4X      HAL2     0.900000E-01   1.00800           0
      9127 MEMB     74       POPE     H4Y      HAL2     0.900000E-01   1.00800           0
      9128 MEMB     74       POPE     C35      CTL2    -0.180000       12.0110           0
      9129 MEMB     74       POPE     H5X      HAL2     0.900000E-01   1.00800           0
      9130 MEMB     74       POPE     H5Y      HAL2     0.900000E-01   1.00800           0
      9131 MEMB     74       POPE     C36      CTL2    -0.180000       12.0110           0
      9132 MEMB     74       POPE     H6X      HAL2     0.900000E-01   1.00800           0
      9133 MEMB     74       POPE     H6Y      HAL2     0.900000E-01   1.00800           0
      9134 MEMB     74       POPE     C37      CTL2    -0.180000       12.0110           0
      9135 MEMB     74       POPE     H7X      HAL2     0.900000E-01   1.00800           0
      9136 MEMB     74       POPE     H7Y      HAL2     0.900000E-01   1.00800           0
      9137 MEMB     74       POPE     C38      CTL2    -0.180000       12.0110           0
      9138 MEMB     74       POPE     H8X      HAL2     0.900000E-01   1.00800           0
      9139 MEMB     74       POPE     H8Y      HAL2     0.900000E-01   1.00800           0
      9140 MEMB     74       POPE     C39      CTL2    -0.180000       12.0110           0
      9141 MEMB     74       POPE     H9X      HAL2     0.900000E-01   1.00800           0
      9142 MEMB     74       POPE     H9Y      HAL2     0.900000E-01   1.00800           0
      9143 MEMB     74       POPE     C310     CTL2    -0.180000       12.0110           0
      9144 MEMB     74       POPE     H10X     HAL2     0.900000E-01   1.00800           0
      9145 MEMB     74       POPE     H10Y     HAL2     0.900000E-01   1.00800           0
      9146 MEMB     74       POPE     C311     CTL2    -0.180000       12.0110           0
      9147 MEMB     74       POPE     H11X     HAL2     0.900000E-01   1.00800           0
      9148 MEMB     74       POPE     H11Y     HAL2     0.900000E-01   1.00800           0
      9149 MEMB     74       POPE     C312     CTL2    -0.180000       12.0110           0
      9150 MEMB     74       POPE     H12X     HAL2     0.900000E-01   1.00800           0
      9151 MEMB     74       POPE     H12Y     HAL2     0.900000E-01   1.00800           0
      9152 MEMB     74       POPE     C313     CTL2    -0.180000       12.0110           0
      9153 MEMB     74       POPE     H13X     HAL2     0.900000E-01   1.00800           0
      9154 MEMB     74       POPE     H13Y     HAL2     0.900000E-01   1.00800           0
      9155 MEMB     74       POPE     C314     CTL2    -0.180000       12.0110           0
      9156 MEMB     74       POPE     H14X     HAL2     0.900000E-01   1.00800           0
      9157 MEMB     74       POPE     H14Y     HAL2     0.900000E-01   1.00800           0
      9158 MEMB     74       POPE     C315     CTL2    -0.180000       12.0110           0
      9159 MEMB     74       POPE     H15X     HAL2     0.900000E-01   1.00800           0
      9160 MEMB     74       POPE     H15Y     HAL2     0.900000E-01   1.00800           0
      9161 MEMB     74       POPE     C316     CTL3    -0.270000       12.0110           0
      9162 MEMB     74       POPE     H16X     HAL3     0.900000E-01   1.00800           0
      9163 MEMB     74       POPE     H16Y     HAL3     0.900000E-01   1.00800           0
      9164 MEMB     74       POPE     H16Z     HAL3     0.900000E-01   1.00800           0
      9165 MEMB     75       PMPE     N        NH3L    -0.300000       14.0070           0
      9166 MEMB     75       PMPE     HN1      HCL      0.330000       1.00800           0
      9167 MEMB     75       PMPE     HN2      HCL      0.330000       1.00800           0
      9168 MEMB     75       PMPE     HN3      HCL      0.330000       1.00800           0
      9169 MEMB     75       PMPE     C12      CTL2     0.130000       12.0110           0
      9170 MEMB     75       PMPE     H12A     HAL2     0.900000E-01   1.00800           0
      9171 MEMB     75       PMPE     H12B     HAL2     0.900000E-01   1.00800           0
      9172 MEMB     75       PMPE     C11      CTL2    -0.800000E-01   12.0110           0
      9173 MEMB     75       PMPE     H11A     HAL2     0.900000E-01   1.00800           0
      9174 MEMB     75       PMPE     H11B     HAL2     0.900000E-01   1.00800           0
      9175 MEMB     75       PMPE     P        PL        1.50000       30.9740           0
      9176 MEMB     75       PMPE     O13      O2L     -0.780000       15.9994           0
      9177 MEMB     75       PMPE     O14      O2L     -0.780000       15.9994           0
      9178 MEMB     75       PMPE     O11      OSLP    -0.570000       15.9994           0
      9179 MEMB     75       PMPE     O12      OSLP    -0.570000       15.9994           0
      9180 MEMB     75       PMPE     C1       CTL2    -0.800000E-01   12.0110           0
      9181 MEMB     75       PMPE     HA       HAL2     0.900000E-01   1.00800           0
      9182 MEMB     75       PMPE     HB       HAL2     0.900000E-01   1.00800           0
      9183 MEMB     75       PMPE     C2       CTL1     0.170000       12.0110           0
      9184 MEMB     75       PMPE     HS       HAL1     0.900000E-01   1.00800           0
      9185 MEMB     75       PMPE     O21      OSL     -0.490000       15.9994           0
      9186 MEMB     75       PMPE     C21      CL       0.900000       12.0110           0
      9187 MEMB     75       PMPE     O22      OBL     -0.630000       15.9994           0
      9188 MEMB     75       PMPE     C22      CTL2    -0.220000       12.0110           0
      9189 MEMB     75       PMPE     H2R      HAL2     0.900000E-01   1.00800           0
      9190 MEMB     75       PMPE     H2S      HAL2     0.900000E-01   1.00800           0
      9191 MEMB     75       PMPE     C3       CTL2     0.800000E-01   12.0110           0
      9192 MEMB     75       PMPE     HX       HAL2     0.900000E-01   1.00800           0
      9193 MEMB     75       PMPE     HY       HAL2     0.900000E-01   1.00800           0
      9194 MEMB     75       PMPE     O31      OSL     -0.490000       15.9994           0
      9195 MEMB     75       PMPE     C31      CL       0.900000       12.0110           0
      9196 MEMB     75       PMPE     O32      OBL     -0.630000       15.9994           0
      9197 MEMB     75       PMPE     C32      CTL2    -0.220000       12.0110           0
      9198 MEMB     75       PMPE     H2X      HAL2     0.900000E-01   1.00800           0
      9199 MEMB     75       PMPE     H2Y      HAL2     0.900000E-01   1.00800           0
      9200 MEMB     75       PMPE     C23      CTL2    -0.180000       12.0110           0
      9201 MEMB     75       PMPE     H3R      HAL2     0.900000E-01   1.00800           0
      9202 MEMB     75       PMPE     H3S      HAL2     0.900000E-01   1.00800           0
      9203 MEMB     75       PMPE     C24      CTL2    -0.180000       12.0110           0
      9204 MEMB     75       PMPE     H4R      HAL2     0.900000E-01   1.00800           0
      9205 MEMB     75       PMPE     H4S      HAL2     0.900000E-01   1.00800           0
      9206 MEMB     75       PMPE     C25      CTL2    -0.180000       12.0110           0
      9207 MEMB     75       PMPE     H5R      HAL2     0.900000E-01   1.00800           0
      9208 MEMB     75       PMPE     H5S      HAL2     0.900000E-01   1.00800           0
      9209 MEMB     75       PMPE     C26      CTL2    -0.180000       12.0110           0
      9210 MEMB     75       PMPE     H6R      HAL2     0.900000E-01   1.00800           0
      9211 MEMB     75       PMPE     H6S      HAL2     0.900000E-01   1.00800           0
      9212 MEMB     75       PMPE     C27      CTL2    -0.180000       12.0110           0
      9213 MEMB     75       PMPE     H7R      HAL2     0.900000E-01   1.00800           0
      9214 MEMB     75       PMPE     H7S      HAL2     0.900000E-01   1.00800           0
      9215 MEMB     75       PMPE     C28      CTL2    -0.180000       12.0110           0
      9216 MEMB     75       PMPE     H8R      HAL2     0.900000E-01   1.00800           0
      9217 MEMB     75       PMPE     H8S      HAL2     0.900000E-01   1.00800           0
      9218 MEMB     75       PMPE     C29      CG3RC1  -0.900000E-01   12.0110           0
      9219 MEMB     75       PMPE     H9R      HGA1     0.900000E-01   1.00800           0
      9220 MEMB     75       PMPE     C217     CG3C31  -0.180000       12.0110           0
      9221 MEMB     75       PMPE     H17R     HGA2     0.900000E-01   1.00800           0
      9222 MEMB     75       PMPE     H17S     HGA2     0.900000E-01   1.00800           0
      9223 MEMB     75       PMPE     C210     CG3RC1  -0.900000E-01   12.0110           0
      9224 MEMB     75       PMPE     H10R     HGA1     0.900000E-01   1.00800           0
      9225 MEMB     75       PMPE     C211     CTL2    -0.180000       12.0110           0
      9226 MEMB     75       PMPE     H11R     HAL2     0.900000E-01   1.00800           0
      9227 MEMB     75       PMPE     H11S     HAL2     0.900000E-01   1.00800           0
      9228 MEMB     75       PMPE     C212     CTL2    -0.180000       12.0110           0
      9229 MEMB     75       PMPE     H12R     HAL2     0.900000E-01   1.00800           0
      9230 MEMB     75       PMPE     H12S     HAL2     0.900000E-01   1.00800           0
      9231 MEMB     75       PMPE     C213     CTL2    -0.180000       12.0110           0
      9232 MEMB     75       PMPE     H13R     HAL2     0.900000E-01   1.00800           0
      9233 MEMB     75       PMPE     H13S     HAL2     0.900000E-01   1.00800           0
      9234 MEMB     75       PMPE     C214     CTL2    -0.180000       12.0110           0
      9235 MEMB     75       PMPE     H14R     HAL2     0.900000E-01   1.00800           0
      9236 MEMB     75       PMPE     H14S     HAL2     0.900000E-01   1.00800           0
      9237 MEMB     75       PMPE     C215     CTL2    -0.180000       12.0110           0
      9238 MEMB     75       PMPE     H15R     HAL2     0.900000E-01   1.00800           0
      9239 MEMB     75       PMPE     H15S     HAL2     0.900000E-01   1.00800           0
      9240 MEMB     75       PMPE     C216     CTL3    -0.270000       12.0110           0
      9241 MEMB     75       PMPE     H16R     HAL3     0.900000E-01   1.00800           0
      9242 MEMB     75       PMPE     H16S     HAL3     0.900000E-01   1.00800           0
      9243 MEMB     75       PMPE     H16T     HAL3     0.900000E-01   1.00800           0
      9244 MEMB     75       PMPE     C33      CTL2    -0.180000       12.0110           0
      9245 MEMB     75       PMPE     H3X      HAL2     0.900000E-01   1.00800           0
      9246 MEMB     75       PMPE     H3Y      HAL2     0.900000E-01   1.00800           0
      9247 MEMB     75       PMPE     C34      CTL2    -0.180000       12.0110           0
      9248 MEMB     75       PMPE     H4X      HAL2     0.900000E-01   1.00800           0
      9249 MEMB     75       PMPE     H4Y      HAL2     0.900000E-01   1.00800           0
      9250 MEMB     75       PMPE     C35      CTL2    -0.180000       12.0110           0
      9251 MEMB     75       PMPE     H5X      HAL2     0.900000E-01   1.00800           0
      9252 MEMB     75       PMPE     H5Y      HAL2     0.900000E-01   1.00800           0
      9253 MEMB     75       PMPE     C36      CTL2    -0.180000       12.0110           0
      9254 MEMB     75       PMPE     H6X      HAL2     0.900000E-01   1.00800           0
      9255 MEMB     75       PMPE     H6Y      HAL2     0.900000E-01   1.00800           0
      9256 MEMB     75       PMPE     C37      CTL2    -0.180000       12.0110           0
      9257 MEMB     75       PMPE     H7X      HAL2     0.900000E-01   1.00800           0
      9258 MEMB     75       PMPE     H7Y      HAL2     0.900000E-01   1.00800           0
      9259 MEMB     75       PMPE     C38      CTL2    -0.180000       12.0110           0
      9260 MEMB     75       PMPE     H8X      HAL2     0.900000E-01   1.00800           0
      9261 MEMB     75       PMPE     H8Y      HAL2     0.900000E-01   1.00800           0
      9262 MEMB     75       PMPE     C39      CTL2    -0.180000       12.0110           0
      9263 MEMB     75       PMPE     H9X      HAL2     0.900000E-01   1.00800           0
      9264 MEMB     75       PMPE     H9Y      HAL2     0.900000E-01   1.00800           0
      9265 MEMB     75       PMPE     C310     CTL2    -0.180000       12.0110           0
      9266 MEMB     75       PMPE     H10X     HAL2     0.900000E-01   1.00800           0
      9267 MEMB     75       PMPE     H10Y     HAL2     0.900000E-01   1.00800           0
      9268 MEMB     75       PMPE     C311     CTL2    -0.180000       12.0110           0
      9269 MEMB     75       PMPE     H11X     HAL2     0.900000E-01   1.00800           0
      9270 MEMB     75       PMPE     H11Y     HAL2     0.900000E-01   1.00800           0
      9271 MEMB     75       PMPE     C312     CTL2    -0.180000       12.0110           0
      9272 MEMB     75       PMPE     H12X     HAL2     0.900000E-01   1.00800           0
      9273 MEMB     75       PMPE     H12Y     HAL2     0.900000E-01   1.00800           0
      9274 MEMB     75       PMPE     C313     CTL2    -0.180000       12.0110           0
      9275 MEMB     75       PMPE     H13X     HAL2     0.900000E-01   1.00800           0
      9276 MEMB     75       PMPE     H13Y     HAL2     0.900000E-01   1.00800           0
      9277 MEMB     75       PMPE     C314     CTL2    -0.180000       12.0110           0
      9278 MEMB     75       PMPE     H14X     HAL2     0.900000E-01   1.00800           0
      9279 MEMB     75       PMPE     H14Y     HAL2     0.900000E-01   1.00800           0
      9280 MEMB     75       PMPE     C315     CTL2    -0.180000       12.0110           0
      9281 MEMB     75       PMPE     H15X     HAL2     0.900000E-01   1.00800           0
      9282 MEMB     75       PMPE     H15Y     HAL2     0.900000E-01   1.00800           0
      9283 MEMB     75       PMPE     C316     CTL3    -0.270000       12.0110           0
      9284 MEMB     75       PMPE     H16X     HAL3     0.900000E-01   1.00800           0
      9285 MEMB     75       PMPE     H16Y     HAL3     0.900000E-01   1.00800           0
      9286 MEMB     75       PMPE     H16Z     HAL3     0.900000E-01   1.00800           0
      9287 MEMB     76       PYPG     C13      CTL2     0.500000E-01   12.0110           0
      9288 MEMB     76       PYPG     H13A     HAL2     0.900000E-01   1.00800           0
      9289 MEMB     76       PYPG     H13B     HAL2     0.900000E-01   1.00800           0
      9290 MEMB     76       PYPG     OC3      OHL     -0.660000       15.9994           0
      9291 MEMB     76       PYPG     HO3      HOL      0.430000       1.00800           0
      9292 MEMB     76       PYPG     C12      CTL1     0.140000       12.0110           0
      9293 MEMB     76       PYPG     H12A     HAL1     0.900000E-01   1.00800           0
      9294 MEMB     76       PYPG     OC2      OHL     -0.660000       15.9994           0
      9295 MEMB     76       PYPG     HO2      HOL      0.430000       1.00800           0
      9296 MEMB     76       PYPG     C11      CTL2    -0.800000E-01   12.0110           0
      9297 MEMB     76       PYPG     H11A     HAL2     0.900000E-01   1.00800           0
      9298 MEMB     76       PYPG     H11B     HAL2     0.900000E-01   1.00800           0
      9299 MEMB     76       PYPG     P        PL        1.50000       30.9740           0
      9300 MEMB     76       PYPG     O13      O2L     -0.780000       15.9994           0
      9301 MEMB     76       PYPG     O14      O2L     -0.780000       15.9994           0
      9302 MEMB     76       PYPG     O11      OSLP    -0.570000       15.9994           0
      9303 MEMB     76       PYPG     O12      OSLP    -0.570000       15.9994           0
      9304 MEMB     76       PYPG     C1       CTL2    -0.800000E-01   12.0110           0
      9305 MEMB     76       PYPG     HA       HAL2     0.900000E-01   1.00800           0
      9306 MEMB     76       PYPG     HB       HAL2     0.900000E-01   1.00800           0
      9307 MEMB     76       PYPG     C2       CTL1     0.170000       12.0110           0
      9308 MEMB     76       PYPG     HS       HAL1     0.900000E-01   1.00800           0
      9309 MEMB     76       PYPG     O21      OSL     -0.490000       15.9994           0
      9310 MEMB     76       PYPG     C21      CL       0.900000       12.0110           0
      9311 MEMB     76       PYPG     O22      OBL     -0.630000       15.9994           0
      9312 MEMB     76       PYPG     C22      CTL2    -0.220000       12.0110           0
      9313 MEMB     76       PYPG     H2R      HAL2     0.900000E-01   1.00800           0
      9314 MEMB     76       PYPG     H2S      HAL2     0.900000E-01   1.00800           0
      9315 MEMB     76       PYPG     C3       CTL2     0.800000E-01   12.0110           0
      9316 MEMB     76       PYPG     HX       HAL2     0.900000E-01   1.00800           0
      9317 MEMB     76       PYPG     HY       HAL2     0.900000E-01   1.00800           0
      9318 MEMB     76       PYPG     O31      OSL     -0.490000       15.9994           0
      9319 MEMB     76       PYPG     C31      CL       0.900000       12.0110           0
      9320 MEMB     76       PYPG     O32      OBL     -0.630000       15.9994           0
      9321 MEMB     76       PYPG     C32      CTL2    -0.220000       12.0110           0
      9322 MEMB     76       PYPG     H2X      HAL2     0.900000E-01   1.00800           0
      9323 MEMB     76       PYPG     H2Y      HAL2     0.900000E-01   1.00800           0
      9324 MEMB     76       PYPG     C23      CTL2    -0.180000       12.0110           0
      9325 MEMB     76       PYPG     H3R      HAL2     0.900000E-01   1.00800           0
      9326 MEMB     76       PYPG     H3S      HAL2     0.900000E-01   1.00800           0
      9327 MEMB     76       PYPG     C24      CTL2    -0.180000       12.0110           0
      9328 MEMB     76       PYPG     H4R      HAL2     0.900000E-01   1.00800           0
      9329 MEMB     76       PYPG     H4S      HAL2     0.900000E-01   1.00800           0
      9330 MEMB     76       PYPG     C25      CTL2    -0.180000       12.0110           0
      9331 MEMB     76       PYPG     H5R      HAL2     0.900000E-01   1.00800           0
      9332 MEMB     76       PYPG     H5S      HAL2     0.900000E-01   1.00800           0
      9333 MEMB     76       PYPG     C26      CTL2    -0.180000       12.0110           0
      9334 MEMB     76       PYPG     H6R      HAL2     0.900000E-01   1.00800           0
      9335 MEMB     76       PYPG     H6S      HAL2     0.900000E-01   1.00800           0
      9336 MEMB     76       PYPG     C27      CTL2    -0.180000       12.0110           0
      9337 MEMB     76       PYPG     H7R      HAL2     0.900000E-01   1.00800           0
      9338 MEMB     76       PYPG     H7S      HAL2     0.900000E-01   1.00800           0
      9339 MEMB     76       PYPG     C28      CTL2    -0.180000       12.0110           0
      9340 MEMB     76       PYPG     H8R      HAL2     0.900000E-01   1.00800           0
      9341 MEMB     76       PYPG     H8S      HAL2     0.900000E-01   1.00800           0
      9342 MEMB     76       PYPG     C29      CEL1    -0.150000       12.0110           0
      9343 MEMB     76       PYPG     H9R      HEL1     0.150000       1.00800           0
      9344 MEMB     76       PYPG     C210     CEL1    -0.150000       12.0110           0
      9345 MEMB     76       PYPG     H10R     HEL1     0.150000       1.00800           0
      9346 MEMB     76       PYPG     C211     CTL2    -0.180000       12.0110           0
      9347 MEMB     76       PYPG     H11R     HAL2     0.900000E-01   1.00800           0
      9348 MEMB     76       PYPG     H11S     HAL2     0.900000E-01   1.00800           0
      9349 MEMB     76       PYPG     C212     CTL2    -0.180000       12.0110           0
      9350 MEMB     76       PYPG     H12R     HAL2     0.900000E-01   1.00800           0
      9351 MEMB     76       PYPG     H12S     HAL2     0.900000E-01   1.00800           0
      9352 MEMB     76       PYPG     C213     CTL2    -0.180000       12.0110           0
      9353 MEMB     76       PYPG     H13R     HAL2     0.900000E-01   1.00800           0
      9354 MEMB     76       PYPG     H13S     HAL2     0.900000E-01   1.00800           0
      9355 MEMB     76       PYPG     C214     CTL2    -0.180000       12.0110           0
      9356 MEMB     76       PYPG     H14R     HAL2     0.900000E-01   1.00800           0
      9357 MEMB     76       PYPG     H14S     HAL2     0.900000E-01   1.00800           0
      9358 MEMB     76       PYPG     C215     CTL2    -0.180000       12.0110           0
      9359 MEMB     76       PYPG     H15R     HAL2     0.900000E-01   1.00800           0
      9360 MEMB     76       PYPG     H15S     HAL2     0.900000E-01   1.00800           0
      9361 MEMB     76       PYPG     C216     CTL3    -0.270000       12.0110           0
      9362 MEMB     76       PYPG     H16R     HAL3     0.900000E-01   1.00800           0
      9363 MEMB     76       PYPG     H16S     HAL3     0.900000E-01   1.00800           0
      9364 MEMB     76       PYPG     H16T     HAL3     0.900000E-01   1.00800           0
      9365 MEMB     76       PYPG     C33      CTL2    -0.180000       12.0110           0
      9366 MEMB     76       PYPG     H3X      HAL2     0.900000E-01   1.00800           0
      9367 MEMB     76       PYPG     H3Y      HAL2     0.900000E-01   1.00800           0
      9368 MEMB     76       PYPG     C34      CTL2    -0.180000       12.0110           0
      9369 MEMB     76       PYPG     H4X      HAL2     0.900000E-01   1.00800           0
      9370 MEMB     76       PYPG     H4Y      HAL2     0.900000E-01   1.00800           0
      9371 MEMB     76       PYPG     C35      CTL2    -0.180000       12.0110           0
      9372 MEMB     76       PYPG     H5X      HAL2     0.900000E-01   1.00800           0
      9373 MEMB     76       PYPG     H5Y      HAL2     0.900000E-01   1.00800           0
      9374 MEMB     76       PYPG     C36      CTL2    -0.180000       12.0110           0
      9375 MEMB     76       PYPG     H6X      HAL2     0.900000E-01   1.00800           0
      9376 MEMB     76       PYPG     H6Y      HAL2     0.900000E-01   1.00800           0
      9377 MEMB     76       PYPG     C37      CTL2    -0.180000       12.0110           0
      9378 MEMB     76       PYPG     H7X      HAL2     0.900000E-01   1.00800           0
      9379 MEMB     76       PYPG     H7Y      HAL2     0.900000E-01   1.00800           0
      9380 MEMB     76       PYPG     C38      CTL2    -0.180000       12.0110           0
      9381 MEMB     76       PYPG     H8X      HAL2     0.900000E-01   1.00800           0
      9382 MEMB     76       PYPG     H8Y      HAL2     0.900000E-01   1.00800           0
      9383 MEMB     76       PYPG     C39      CTL2    -0.180000       12.0110           0
      9384 MEMB     76       PYPG     H9X      HAL2     0.900000E-01   1.00800           0
      9385 MEMB     76       PYPG     H9Y      HAL2     0.900000E-01   1.00800           0
      9386 MEMB     76       PYPG     C310     CTL2    -0.180000       12.0110           0
      9387 MEMB     76       PYPG     H10X     HAL2     0.900000E-01   1.00800           0
      9388 MEMB     76       PYPG     H10Y     HAL2     0.900000E-01   1.00800           0
      9389 MEMB     76       PYPG     C311     CTL2    -0.180000       12.0110           0
      9390 MEMB     76       PYPG     H11X     HAL2     0.900000E-01   1.00800           0
      9391 MEMB     76       PYPG     H11Y     HAL2     0.900000E-01   1.00800           0
      9392 MEMB     76       PYPG     C312     CTL2    -0.180000       12.0110           0
      9393 MEMB     76       PYPG     H12X     HAL2     0.900000E-01   1.00800           0
      9394 MEMB     76       PYPG     H12Y     HAL2     0.900000E-01   1.00800           0
      9395 MEMB     76       PYPG     C313     CTL2    -0.180000       12.0110           0
      9396 MEMB     76       PYPG     H13X     HAL2     0.900000E-01   1.00800           0
      9397 MEMB     76       PYPG     H13Y     HAL2     0.900000E-01   1.00800           0
      9398 MEMB     76       PYPG     C314     CTL2    -0.180000       12.0110           0
      9399 MEMB     76       PYPG     H14X     HAL2     0.900000E-01   1.00800           0
      9400 MEMB     76       PYPG     H14Y     HAL2     0.900000E-01   1.00800           0
      9401 MEMB     76       PYPG     C315     CTL2    -0.180000       12.0110           0
      9402 MEMB     76       PYPG     H15X     HAL2     0.900000E-01   1.00800           0
      9403 MEMB     76       PYPG     H15Y     HAL2     0.900000E-01   1.00800           0
      9404 MEMB     76       PYPG     C316     CTL3    -0.270000       12.0110           0
      9405 MEMB     76       PYPG     H16X     HAL3     0.900000E-01   1.00800           0
      9406 MEMB     76       PYPG     H16Y     HAL3     0.900000E-01   1.00800           0
      9407 MEMB     76       PYPG     H16Z     HAL3     0.900000E-01   1.00800           0
      9408 MEMB     77       OYPE     N        NH3L    -0.300000       14.0070           0
      9409 MEMB     77       OYPE     HN1      HCL      0.330000       1.00800           0
      9410 MEMB     77       OYPE     HN2      HCL      0.330000       1.00800           0
      9411 MEMB     77       OYPE     HN3      HCL      0.330000       1.00800           0
      9412 MEMB     77       OYPE     C12      CTL2     0.130000       12.0110           0
      9413 MEMB     77       OYPE     H12A     HAL2     0.900000E-01   1.00800           0
      9414 MEMB     77       OYPE     H12B     HAL2     0.900000E-01   1.00800           0
      9415 MEMB     77       OYPE     C11      CTL2    -0.800000E-01   12.0110           0
      9416 MEMB     77       OYPE     H11A     HAL2     0.900000E-01   1.00800           0
      9417 MEMB     77       OYPE     H11B     HAL2     0.900000E-01   1.00800           0
      9418 MEMB     77       OYPE     P        PL        1.50000       30.9740           0
      9419 MEMB     77       OYPE     O13      O2L     -0.780000       15.9994           0
      9420 MEMB     77       OYPE     O14      O2L     -0.780000       15.9994           0
      9421 MEMB     77       OYPE     O11      OSLP    -0.570000       15.9994           0
      9422 MEMB     77       OYPE     O12      OSLP    -0.570000       15.9994           0
      9423 MEMB     77       OYPE     C1       CTL2    -0.800000E-01   12.0110           0
      9424 MEMB     77       OYPE     HA       HAL2     0.900000E-01   1.00800           0
      9425 MEMB     77       OYPE     HB       HAL2     0.900000E-01   1.00800           0
      9426 MEMB     77       OYPE     C2       CTL1     0.170000       12.0110           0
      9427 MEMB     77       OYPE     HS       HAL1     0.900000E-01   1.00800           0
      9428 MEMB     77       OYPE     O21      OSL     -0.490000       15.9994           0
      9429 MEMB     77       OYPE     C21      CL       0.900000       12.0110           0
      9430 MEMB     77       OYPE     O22      OBL     -0.630000       15.9994           0
      9431 MEMB     77       OYPE     C22      CTL2    -0.220000       12.0110           0
      9432 MEMB     77       OYPE     H2R      HAL2     0.900000E-01   1.00800           0
      9433 MEMB     77       OYPE     H2S      HAL2     0.900000E-01   1.00800           0
      9434 MEMB     77       OYPE     C3       CTL2     0.800000E-01   12.0110           0
      9435 MEMB     77       OYPE     HX       HAL2     0.900000E-01   1.00800           0
      9436 MEMB     77       OYPE     HY       HAL2     0.900000E-01   1.00800           0
      9437 MEMB     77       OYPE     O31      OSL     -0.490000       15.9994           0
      9438 MEMB     77       OYPE     C31      CL       0.900000       12.0110           0
      9439 MEMB     77       OYPE     O32      OBL     -0.630000       15.9994           0
      9440 MEMB     77       OYPE     C32      CTL2    -0.220000       12.0110           0
      9441 MEMB     77       OYPE     H2X      HAL2     0.900000E-01   1.00800           0
      9442 MEMB     77       OYPE     H2Y      HAL2     0.900000E-01   1.00800           0
      9443 MEMB     77       OYPE     C23      CTL2    -0.180000       12.0110           0
      9444 MEMB     77       OYPE     H3R      HAL2     0.900000E-01   1.00800           0
      9445 MEMB     77       OYPE     H3S      HAL2     0.900000E-01   1.00800           0
      9446 MEMB     77       OYPE     C24      CTL2    -0.180000       12.0110           0
      9447 MEMB     77       OYPE     H4R      HAL2     0.900000E-01   1.00800           0
      9448 MEMB     77       OYPE     H4S      HAL2     0.900000E-01   1.00800           0
      9449 MEMB     77       OYPE     C25      CTL2    -0.180000       12.0110           0
      9450 MEMB     77       OYPE     H5R      HAL2     0.900000E-01   1.00800           0
      9451 MEMB     77       OYPE     H5S      HAL2     0.900000E-01   1.00800           0
      9452 MEMB     77       OYPE     C26      CTL2    -0.180000       12.0110           0
      9453 MEMB     77       OYPE     H6R      HAL2     0.900000E-01   1.00800           0
      9454 MEMB     77       OYPE     H6S      HAL2     0.900000E-01   1.00800           0
      9455 MEMB     77       OYPE     C27      CTL2    -0.180000       12.0110           0
      9456 MEMB     77       OYPE     H7R      HAL2     0.900000E-01   1.00800           0
      9457 MEMB     77       OYPE     H7S      HAL2     0.900000E-01   1.00800           0
      9458 MEMB     77       OYPE     C28      CTL2    -0.180000       12.0110           0
      9459 MEMB     77       OYPE     H8R      HAL2     0.900000E-01   1.00800           0
      9460 MEMB     77       OYPE     H8S      HAL2     0.900000E-01   1.00800           0
      9461 MEMB     77       OYPE     C29      CEL1    -0.150000       12.0110           0
      9462 MEMB     77       OYPE     H9R      HEL1     0.150000       1.00800           0
      9463 MEMB     77       OYPE     C210     CEL1    -0.150000       12.0110           0
      9464 MEMB     77       OYPE     H10R     HEL1     0.150000       1.00800           0
      9465 MEMB     77       OYPE     C211     CTL2    -0.180000       12.0110           0
      9466 MEMB     77       OYPE     H11R     HAL2     0.900000E-01   1.00800           0
      9467 MEMB     77       OYPE     H11S     HAL2     0.900000E-01   1.00800           0
      9468 MEMB     77       OYPE     C212     CTL2    -0.180000       12.0110           0
      9469 MEMB     77       OYPE     H12R     HAL2     0.900000E-01   1.00800           0
      9470 MEMB     77       OYPE     H12S     HAL2     0.900000E-01   1.00800           0
      9471 MEMB     77       OYPE     C213     CTL2    -0.180000       12.0110           0
      9472 MEMB     77       OYPE     H13R     HAL2     0.900000E-01   1.00800           0
      9473 MEMB     77       OYPE     H13S     HAL2     0.900000E-01   1.00800           0
      9474 MEMB     77       OYPE     C214     CTL2    -0.180000       12.0110           0
      9475 MEMB     77       OYPE     H14R     HAL2     0.900000E-01   1.00800           0
      9476 MEMB     77       OYPE     H14S     HAL2     0.900000E-01   1.00800           0
      9477 MEMB     77       OYPE     C215     CTL2    -0.180000       12.0110           0
      9478 MEMB     77       OYPE     H15R     HAL2     0.900000E-01   1.00800           0
      9479 MEMB     77       OYPE     H15S     HAL2     0.900000E-01   1.00800           0
      9480 MEMB     77       OYPE     C216     CTL3    -0.270000       12.0110           0
      9481 MEMB     77       OYPE     H16R     HAL3     0.900000E-01   1.00800           0
      9482 MEMB     77       OYPE     H16S     HAL3     0.900000E-01   1.00800           0
      9483 MEMB     77       OYPE     H16T     HAL3     0.900000E-01   1.00800           0
      9484 MEMB     77       OYPE     C33      CTL2    -0.180000       12.0110           0
      9485 MEMB     77       OYPE     H3X      HAL2     0.900000E-01   1.00800           0
      9486 MEMB     77       OYPE     H3Y      HAL2     0.900000E-01   1.00800           0
      9487 MEMB     77       OYPE     C34      CTL2    -0.180000       12.0110           0
      9488 MEMB     77       OYPE     H4X      HAL2     0.900000E-01   1.00800           0
      9489 MEMB     77       OYPE     H4Y      HAL2     0.900000E-01   1.00800           0
      9490 MEMB     77       OYPE     C35      CTL2    -0.180000       12.0110           0
      9491 MEMB     77       OYPE     H5X      HAL2     0.900000E-01   1.00800           0
      9492 MEMB     77       OYPE     H5Y      HAL2     0.900000E-01   1.00800           0
      9493 MEMB     77       OYPE     C36      CTL2    -0.180000       12.0110           0
      9494 MEMB     77       OYPE     H6X      HAL2     0.900000E-01   1.00800           0
      9495 MEMB     77       OYPE     H6Y      HAL2     0.900000E-01   1.00800           0
      9496 MEMB     77       OYPE     C37      CTL2    -0.180000       12.0110           0
      9497 MEMB     77       OYPE     H7X      HAL2     0.900000E-01   1.00800           0
      9498 MEMB     77       OYPE     H7Y      HAL2     0.900000E-01   1.00800           0
      9499 MEMB     77       OYPE     C38      CTL2    -0.180000       12.0110           0
      9500 MEMB     77       OYPE     H8X      HAL2     0.900000E-01   1.00800           0
      9501 MEMB     77       OYPE     H8Y      HAL2     0.900000E-01   1.00800           0
      9502 MEMB     77       OYPE     C39      CEL1    -0.150000       12.0110           0
      9503 MEMB     77       OYPE     H9X      HEL1     0.150000       1.00800           0
      9504 MEMB     77       OYPE     C310     CEL1    -0.150000       12.0110           0
      9505 MEMB     77       OYPE     H10X     HEL1     0.150000       1.00800           0
      9506 MEMB     77       OYPE     C311     CTL2    -0.180000       12.0110           0
      9507 MEMB     77       OYPE     H11X     HAL2     0.900000E-01   1.00800           0
      9508 MEMB     77       OYPE     H11Y     HAL2     0.900000E-01   1.00800           0
      9509 MEMB     77       OYPE     C312     CTL2    -0.180000       12.0110           0
      9510 MEMB     77       OYPE     H12X     HAL2     0.900000E-01   1.00800           0
      9511 MEMB     77       OYPE     H12Y     HAL2     0.900000E-01   1.00800           0
      9512 MEMB     77       OYPE     C313     CTL2    -0.180000       12.0110           0
      9513 MEMB     77       OYPE     H13X     HAL2     0.900000E-01   1.00800           0
      9514 MEMB     77       OYPE     H13Y     HAL2     0.900000E-01   1.00800           0
      9515 MEMB     77       OYPE     C314     CTL2    -0.180000       12.0110           0
      9516 MEMB     77       OYPE     H14X     HAL2     0.900000E-01   1.00800           0
      9517 MEMB     77       OYPE     H14Y     HAL2     0.900000E-01   1.00800           0
      9518 MEMB     77       OYPE     C315     CTL2    -0.180000       12.0110           0
      9519 MEMB     77       OYPE     H15X     HAL2     0.900000E-01   1.00800           0
      9520 MEMB     77       OYPE     H15Y     HAL2     0.900000E-01   1.00800           0
      9521 MEMB     77       OYPE     C316     CTL2    -0.180000       12.0110           0
      9522 MEMB     77       OYPE     H16X     HAL2     0.900000E-01   1.00800           0
      9523 MEMB     77       OYPE     H16Y     HAL2     0.900000E-01   1.00800           0
      9524 MEMB     77       OYPE     C317     CTL2    -0.180000       12.0110           0
      9525 MEMB     77       OYPE     H17X     HAL2     0.900000E-01   1.00800           0
      9526 MEMB     77       OYPE     H17Y     HAL2     0.900000E-01   1.00800           0
      9527 MEMB     77       OYPE     C318     CTL3    -0.270000       12.0110           0
      9528 MEMB     77       OYPE     H18X     HAL3     0.900000E-01   1.00800           0
      9529 MEMB     77       OYPE     H18Y     HAL3     0.900000E-01   1.00800           0
      9530 MEMB     77       OYPE     H18Z     HAL3     0.900000E-01   1.00800           0
      9531 MEMB     78       PMPE     N        NH3L    -0.300000       14.0070           0
      9532 MEMB     78       PMPE     HN1      HCL      0.330000       1.00800           0
      9533 MEMB     78       PMPE     HN2      HCL      0.330000       1.00800           0
      9534 MEMB     78       PMPE     HN3      HCL      0.330000       1.00800           0
      9535 MEMB     78       PMPE     C12      CTL2     0.130000       12.0110           0
      9536 MEMB     78       PMPE     H12A     HAL2     0.900000E-01   1.00800           0
      9537 MEMB     78       PMPE     H12B     HAL2     0.900000E-01   1.00800           0
      9538 MEMB     78       PMPE     C11      CTL2    -0.800000E-01   12.0110           0
      9539 MEMB     78       PMPE     H11A     HAL2     0.900000E-01   1.00800           0
      9540 MEMB     78       PMPE     H11B     HAL2     0.900000E-01   1.00800           0
      9541 MEMB     78       PMPE     P        PL        1.50000       30.9740           0
      9542 MEMB     78       PMPE     O13      O2L     -0.780000       15.9994           0
      9543 MEMB     78       PMPE     O14      O2L     -0.780000       15.9994           0
      9544 MEMB     78       PMPE     O11      OSLP    -0.570000       15.9994           0
      9545 MEMB     78       PMPE     O12      OSLP    -0.570000       15.9994           0
      9546 MEMB     78       PMPE     C1       CTL2    -0.800000E-01   12.0110           0
      9547 MEMB     78       PMPE     HA       HAL2     0.900000E-01   1.00800           0
      9548 MEMB     78       PMPE     HB       HAL2     0.900000E-01   1.00800           0
      9549 MEMB     78       PMPE     C2       CTL1     0.170000       12.0110           0
      9550 MEMB     78       PMPE     HS       HAL1     0.900000E-01   1.00800           0
      9551 MEMB     78       PMPE     O21      OSL     -0.490000       15.9994           0
      9552 MEMB     78       PMPE     C21      CL       0.900000       12.0110           0
      9553 MEMB     78       PMPE     O22      OBL     -0.630000       15.9994           0
      9554 MEMB     78       PMPE     C22      CTL2    -0.220000       12.0110           0
      9555 MEMB     78       PMPE     H2R      HAL2     0.900000E-01   1.00800           0
      9556 MEMB     78       PMPE     H2S      HAL2     0.900000E-01   1.00800           0
      9557 MEMB     78       PMPE     C3       CTL2     0.800000E-01   12.0110           0
      9558 MEMB     78       PMPE     HX       HAL2     0.900000E-01   1.00800           0
      9559 MEMB     78       PMPE     HY       HAL2     0.900000E-01   1.00800           0
      9560 MEMB     78       PMPE     O31      OSL     -0.490000       15.9994           0
      9561 MEMB     78       PMPE     C31      CL       0.900000       12.0110           0
      9562 MEMB     78       PMPE     O32      OBL     -0.630000       15.9994           0
      9563 MEMB     78       PMPE     C32      CTL2    -0.220000       12.0110           0
      9564 MEMB     78       PMPE     H2X      HAL2     0.900000E-01   1.00800           0
      9565 MEMB     78       PMPE     H2Y      HAL2     0.900000E-01   1.00800           0
      9566 MEMB     78       PMPE     C23      CTL2    -0.180000       12.0110           0
      9567 MEMB     78       PMPE     H3R      HAL2     0.900000E-01   1.00800           0
      9568 MEMB     78       PMPE     H3S      HAL2     0.900000E-01   1.00800           0
      9569 MEMB     78       PMPE     C24      CTL2    -0.180000       12.0110           0
      9570 MEMB     78       PMPE     H4R      HAL2     0.900000E-01   1.00800           0
      9571 MEMB     78       PMPE     H4S      HAL2     0.900000E-01   1.00800           0
      9572 MEMB     78       PMPE     C25      CTL2    -0.180000       12.0110           0
      9573 MEMB     78       PMPE     H5R      HAL2     0.900000E-01   1.00800           0
      9574 MEMB     78       PMPE     H5S      HAL2     0.900000E-01   1.00800           0
      9575 MEMB     78       PMPE     C26      CTL2    -0.180000       12.0110           0
      9576 MEMB     78       PMPE     H6R      HAL2     0.900000E-01   1.00800           0
      9577 MEMB     78       PMPE     H6S      HAL2     0.900000E-01   1.00800           0
      9578 MEMB     78       PMPE     C27      CTL2    -0.180000       12.0110           0
      9579 MEMB     78       PMPE     H7R      HAL2     0.900000E-01   1.00800           0
      9580 MEMB     78       PMPE     H7S      HAL2     0.900000E-01   1.00800           0
      9581 MEMB     78       PMPE     C28      CTL2    -0.180000       12.0110           0
      9582 MEMB     78       PMPE     H8R      HAL2     0.900000E-01   1.00800           0
      9583 MEMB     78       PMPE     H8S      HAL2     0.900000E-01   1.00800           0
      9584 MEMB     78       PMPE     C29      CG3RC1  -0.900000E-01   12.0110           0
      9585 MEMB     78       PMPE     H9R      HGA1     0.900000E-01   1.00800           0
      9586 MEMB     78       PMPE     C217     CG3C31  -0.180000       12.0110           0
      9587 MEMB     78       PMPE     H17R     HGA2     0.900000E-01   1.00800           0
      9588 MEMB     78       PMPE     H17S     HGA2     0.900000E-01   1.00800           0
      9589 MEMB     78       PMPE     C210     CG3RC1  -0.900000E-01   12.0110           0
      9590 MEMB     78       PMPE     H10R     HGA1     0.900000E-01   1.00800           0
      9591 MEMB     78       PMPE     C211     CTL2    -0.180000       12.0110           0
      9592 MEMB     78       PMPE     H11R     HAL2     0.900000E-01   1.00800           0
      9593 MEMB     78       PMPE     H11S     HAL2     0.900000E-01   1.00800           0
      9594 MEMB     78       PMPE     C212     CTL2    -0.180000       12.0110           0
      9595 MEMB     78       PMPE     H12R     HAL2     0.900000E-01   1.00800           0
      9596 MEMB     78       PMPE     H12S     HAL2     0.900000E-01   1.00800           0
      9597 MEMB     78       PMPE     C213     CTL2    -0.180000       12.0110           0
      9598 MEMB     78       PMPE     H13R     HAL2     0.900000E-01   1.00800           0
      9599 MEMB     78       PMPE     H13S     HAL2     0.900000E-01   1.00800           0
      9600 MEMB     78       PMPE     C214     CTL2    -0.180000       12.0110           0
      9601 MEMB     78       PMPE     H14R     HAL2     0.900000E-01   1.00800           0
      9602 MEMB     78       PMPE     H14S     HAL2     0.900000E-01   1.00800           0
      9603 MEMB     78       PMPE     C215     CTL2    -0.180000       12.0110           0
      9604 MEMB     78       PMPE     H15R     HAL2     0.900000E-01   1.00800           0
      9605 MEMB     78       PMPE     H15S     HAL2     0.900000E-01   1.00800           0
      9606 MEMB     78       PMPE     C216     CTL3    -0.270000       12.0110           0
      9607 MEMB     78       PMPE     H16R     HAL3     0.900000E-01   1.00800           0
      9608 MEMB     78       PMPE     H16S     HAL3     0.900000E-01   1.00800           0
      9609 MEMB     78       PMPE     H16T     HAL3     0.900000E-01   1.00800           0
      9610 MEMB     78       PMPE     C33      CTL2    -0.180000       12.0110           0
      9611 MEMB     78       PMPE     H3X      HAL2     0.900000E-01   1.00800           0
      9612 MEMB     78       PMPE     H3Y      HAL2     0.900000E-01   1.00800           0
      9613 MEMB     78       PMPE     C34      CTL2    -0.180000       12.0110           0
      9614 MEMB     78       PMPE     H4X      HAL2     0.900000E-01   1.00800           0
      9615 MEMB     78       PMPE     H4Y      HAL2     0.900000E-01   1.00800           0
      9616 MEMB     78       PMPE     C35      CTL2    -0.180000       12.0110           0
      9617 MEMB     78       PMPE     H5X      HAL2     0.900000E-01   1.00800           0
      9618 MEMB     78       PMPE     H5Y      HAL2     0.900000E-01   1.00800           0
      9619 MEMB     78       PMPE     C36      CTL2    -0.180000       12.0110           0
      9620 MEMB     78       PMPE     H6X      HAL2     0.900000E-01   1.00800           0
      9621 MEMB     78       PMPE     H6Y      HAL2     0.900000E-01   1.00800           0
      9622 MEMB     78       PMPE     C37      CTL2    -0.180000       12.0110           0
      9623 MEMB     78       PMPE     H7X      HAL2     0.900000E-01   1.00800           0
      9624 MEMB     78       PMPE     H7Y      HAL2     0.900000E-01   1.00800           0
      9625 MEMB     78       PMPE     C38      CTL2    -0.180000       12.0110           0
      9626 MEMB     78       PMPE     H8X      HAL2     0.900000E-01   1.00800           0
      9627 MEMB     78       PMPE     H8Y      HAL2     0.900000E-01   1.00800           0
      9628 MEMB     78       PMPE     C39      CTL2    -0.180000       12.0110           0
      9629 MEMB     78       PMPE     H9X      HAL2     0.900000E-01   1.00800           0
      9630 MEMB     78       PMPE     H9Y      HAL2     0.900000E-01   1.00800           0
      9631 MEMB     78       PMPE     C310     CTL2    -0.180000       12.0110           0
      9632 MEMB     78       PMPE     H10X     HAL2     0.900000E-01   1.00800           0
      9633 MEMB     78       PMPE     H10Y     HAL2     0.900000E-01   1.00800           0
      9634 MEMB     78       PMPE     C311     CTL2    -0.180000       12.0110           0
      9635 MEMB     78       PMPE     H11X     HAL2     0.900000E-01   1.00800           0
      9636 MEMB     78       PMPE     H11Y     HAL2     0.900000E-01   1.00800           0
      9637 MEMB     78       PMPE     C312     CTL2    -0.180000       12.0110           0
      9638 MEMB     78       PMPE     H12X     HAL2     0.900000E-01   1.00800           0
      9639 MEMB     78       PMPE     H12Y     HAL2     0.900000E-01   1.00800           0
      9640 MEMB     78       PMPE     C313     CTL2    -0.180000       12.0110           0
      9641 MEMB     78       PMPE     H13X     HAL2     0.900000E-01   1.00800           0
      9642 MEMB     78       PMPE     H13Y     HAL2     0.900000E-01   1.00800           0
      9643 MEMB     78       PMPE     C314     CTL2    -0.180000       12.0110           0
      9644 MEMB     78       PMPE     H14X     HAL2     0.900000E-01   1.00800           0
      9645 MEMB     78       PMPE     H14Y     HAL2     0.900000E-01   1.00800           0
      9646 MEMB     78       PMPE     C315     CTL2    -0.180000       12.0110           0
      9647 MEMB     78       PMPE     H15X     HAL2     0.900000E-01   1.00800           0
      9648 MEMB     78       PMPE     H15Y     HAL2     0.900000E-01   1.00800           0
      9649 MEMB     78       PMPE     C316     CTL3    -0.270000       12.0110           0
      9650 MEMB     78       PMPE     H16X     HAL3     0.900000E-01   1.00800           0
      9651 MEMB     78       PMPE     H16Y     HAL3     0.900000E-01   1.00800           0
      9652 MEMB     78       PMPE     H16Z     HAL3     0.900000E-01   1.00800           0
      9653 MEMB     79       PMPE     N        NH3L    -0.300000       14.0070           0
      9654 MEMB     79       PMPE     HN1      HCL      0.330000       1.00800           0
      9655 MEMB     79       PMPE     HN2      HCL      0.330000       1.00800           0
      9656 MEMB     79       PMPE     HN3      HCL      0.330000       1.00800           0
      9657 MEMB     79       PMPE     C12      CTL2     0.130000       12.0110           0
      9658 MEMB     79       PMPE     H12A     HAL2     0.900000E-01   1.00800           0
      9659 MEMB     79       PMPE     H12B     HAL2     0.900000E-01   1.00800           0
      9660 MEMB     79       PMPE     C11      CTL2    -0.800000E-01   12.0110           0
      9661 MEMB     79       PMPE     H11A     HAL2     0.900000E-01   1.00800           0
      9662 MEMB     79       PMPE     H11B     HAL2     0.900000E-01   1.00800           0
      9663 MEMB     79       PMPE     P        PL        1.50000       30.9740           0
      9664 MEMB     79       PMPE     O13      O2L     -0.780000       15.9994           0
      9665 MEMB     79       PMPE     O14      O2L     -0.780000       15.9994           0
      9666 MEMB     79       PMPE     O11      OSLP    -0.570000       15.9994           0
      9667 MEMB     79       PMPE     O12      OSLP    -0.570000       15.9994           0
      9668 MEMB     79       PMPE     C1       CTL2    -0.800000E-01   12.0110           0
      9669 MEMB     79       PMPE     HA       HAL2     0.900000E-01   1.00800           0
      9670 MEMB     79       PMPE     HB       HAL2     0.900000E-01   1.00800           0
      9671 MEMB     79       PMPE     C2       CTL1     0.170000       12.0110           0
      9672 MEMB     79       PMPE     HS       HAL1     0.900000E-01   1.00800           0
      9673 MEMB     79       PMPE     O21      OSL     -0.490000       15.9994           0
      9674 MEMB     79       PMPE     C21      CL       0.900000       12.0110           0
      9675 MEMB     79       PMPE     O22      OBL     -0.630000       15.9994           0
      9676 MEMB     79       PMPE     C22      CTL2    -0.220000       12.0110           0
      9677 MEMB     79       PMPE     H2R      HAL2     0.900000E-01   1.00800           0
      9678 MEMB     79       PMPE     H2S      HAL2     0.900000E-01   1.00800           0
      9679 MEMB     79       PMPE     C3       CTL2     0.800000E-01   12.0110           0
      9680 MEMB     79       PMPE     HX       HAL2     0.900000E-01   1.00800           0
      9681 MEMB     79       PMPE     HY       HAL2     0.900000E-01   1.00800           0
      9682 MEMB     79       PMPE     O31      OSL     -0.490000       15.9994           0
      9683 MEMB     79       PMPE     C31      CL       0.900000       12.0110           0
      9684 MEMB     79       PMPE     O32      OBL     -0.630000       15.9994           0
      9685 MEMB     79       PMPE     C32      CTL2    -0.220000       12.0110           0
      9686 MEMB     79       PMPE     H2X      HAL2     0.900000E-01   1.00800           0
      9687 MEMB     79       PMPE     H2Y      HAL2     0.900000E-01   1.00800           0
      9688 MEMB     79       PMPE     C23      CTL2    -0.180000       12.0110           0
      9689 MEMB     79       PMPE     H3R      HAL2     0.900000E-01   1.00800           0
      9690 MEMB     79       PMPE     H3S      HAL2     0.900000E-01   1.00800           0
      9691 MEMB     79       PMPE     C24      CTL2    -0.180000       12.0110           0
      9692 MEMB     79       PMPE     H4R      HAL2     0.900000E-01   1.00800           0
      9693 MEMB     79       PMPE     H4S      HAL2     0.900000E-01   1.00800           0
      9694 MEMB     79       PMPE     C25      CTL2    -0.180000       12.0110           0
      9695 MEMB     79       PMPE     H5R      HAL2     0.900000E-01   1.00800           0
      9696 MEMB     79       PMPE     H5S      HAL2     0.900000E-01   1.00800           0
      9697 MEMB     79       PMPE     C26      CTL2    -0.180000       12.0110           0
      9698 MEMB     79       PMPE     H6R      HAL2     0.900000E-01   1.00800           0
      9699 MEMB     79       PMPE     H6S      HAL2     0.900000E-01   1.00800           0
      9700 MEMB     79       PMPE     C27      CTL2    -0.180000       12.0110           0
      9701 MEMB     79       PMPE     H7R      HAL2     0.900000E-01   1.00800           0
      9702 MEMB     79       PMPE     H7S      HAL2     0.900000E-01   1.00800           0
      9703 MEMB     79       PMPE     C28      CTL2    -0.180000       12.0110           0
      9704 MEMB     79       PMPE     H8R      HAL2     0.900000E-01   1.00800           0
      9705 MEMB     79       PMPE     H8S      HAL2     0.900000E-01   1.00800           0
      9706 MEMB     79       PMPE     C29      CG3RC1  -0.900000E-01   12.0110           0
      9707 MEMB     79       PMPE     H9R      HGA1     0.900000E-01   1.00800           0
      9708 MEMB     79       PMPE     C217     CG3C31  -0.180000       12.0110           0
      9709 MEMB     79       PMPE     H17R     HGA2     0.900000E-01   1.00800           0
      9710 MEMB     79       PMPE     H17S     HGA2     0.900000E-01   1.00800           0
      9711 MEMB     79       PMPE     C210     CG3RC1  -0.900000E-01   12.0110           0
      9712 MEMB     79       PMPE     H10R     HGA1     0.900000E-01   1.00800           0
      9713 MEMB     79       PMPE     C211     CTL2    -0.180000       12.0110           0
      9714 MEMB     79       PMPE     H11R     HAL2     0.900000E-01   1.00800           0
      9715 MEMB     79       PMPE     H11S     HAL2     0.900000E-01   1.00800           0
      9716 MEMB     79       PMPE     C212     CTL2    -0.180000       12.0110           0
      9717 MEMB     79       PMPE     H12R     HAL2     0.900000E-01   1.00800           0
      9718 MEMB     79       PMPE     H12S     HAL2     0.900000E-01   1.00800           0
      9719 MEMB     79       PMPE     C213     CTL2    -0.180000       12.0110           0
      9720 MEMB     79       PMPE     H13R     HAL2     0.900000E-01   1.00800           0
      9721 MEMB     79       PMPE     H13S     HAL2     0.900000E-01   1.00800           0
      9722 MEMB     79       PMPE     C214     CTL2    -0.180000       12.0110           0
      9723 MEMB     79       PMPE     H14R     HAL2     0.900000E-01   1.00800           0
      9724 MEMB     79       PMPE     H14S     HAL2     0.900000E-01   1.00800           0
      9725 MEMB     79       PMPE     C215     CTL2    -0.180000       12.0110           0
      9726 MEMB     79       PMPE     H15R     HAL2     0.900000E-01   1.00800           0
      9727 MEMB     79       PMPE     H15S     HAL2     0.900000E-01   1.00800           0
      9728 MEMB     79       PMPE     C216     CTL3    -0.270000       12.0110           0
      9729 MEMB     79       PMPE     H16R     HAL3     0.900000E-01   1.00800           0
      9730 MEMB     79       PMPE     H16S     HAL3     0.900000E-01   1.00800           0
      9731 MEMB     79       PMPE     H16T     HAL3     0.900000E-01   1.00800           0
      9732 MEMB     79       PMPE     C33      CTL2    -0.180000       12.0110           0
      9733 MEMB     79       PMPE     H3X      HAL2     0.900000E-01   1.00800           0
      9734 MEMB     79       PMPE     H3Y      HAL2     0.900000E-01   1.00800           0
      9735 MEMB     79       PMPE     C34      CTL2    -0.180000       12.0110           0
      9736 MEMB     79       PMPE     H4X      HAL2     0.900000E-01   1.00800           0
      9737 MEMB     79       PMPE     H4Y      HAL2     0.900000E-01   1.00800           0
      9738 MEMB     79       PMPE     C35      CTL2    -0.180000       12.0110           0
      9739 MEMB     79       PMPE     H5X      HAL2     0.900000E-01   1.00800           0
      9740 MEMB     79       PMPE     H5Y      HAL2     0.900000E-01   1.00800           0
      9741 MEMB     79       PMPE     C36      CTL2    -0.180000       12.0110           0
      9742 MEMB     79       PMPE     H6X      HAL2     0.900000E-01   1.00800           0
      9743 MEMB     79       PMPE     H6Y      HAL2     0.900000E-01   1.00800           0
      9744 MEMB     79       PMPE     C37      CTL2    -0.180000       12.0110           0
      9745 MEMB     79       PMPE     H7X      HAL2     0.900000E-01   1.00800           0
      9746 MEMB     79       PMPE     H7Y      HAL2     0.900000E-01   1.00800           0
      9747 MEMB     79       PMPE     C38      CTL2    -0.180000       12.0110           0
      9748 MEMB     79       PMPE     H8X      HAL2     0.900000E-01   1.00800           0
      9749 MEMB     79       PMPE     H8Y      HAL2     0.900000E-01   1.00800           0
      9750 MEMB     79       PMPE     C39      CTL2    -0.180000       12.0110           0
      9751 MEMB     79       PMPE     H9X      HAL2     0.900000E-01   1.00800           0
      9752 MEMB     79       PMPE     H9Y      HAL2     0.900000E-01   1.00800           0
      9753 MEMB     79       PMPE     C310     CTL2    -0.180000       12.0110           0
      9754 MEMB     79       PMPE     H10X     HAL2     0.900000E-01   1.00800           0
      9755 MEMB     79       PMPE     H10Y     HAL2     0.900000E-01   1.00800           0
      9756 MEMB     79       PMPE     C311     CTL2    -0.180000       12.0110           0
      9757 MEMB     79       PMPE     H11X     HAL2     0.900000E-01   1.00800           0
      9758 MEMB     79       PMPE     H11Y     HAL2     0.900000E-01   1.00800           0
      9759 MEMB     79       PMPE     C312     CTL2    -0.180000       12.0110           0
      9760 MEMB     79       PMPE     H12X     HAL2     0.900000E-01   1.00800           0
      9761 MEMB     79       PMPE     H12Y     HAL2     0.900000E-01   1.00800           0
      9762 MEMB     79       PMPE     C313     CTL2    -0.180000       12.0110           0
      9763 MEMB     79       PMPE     H13X     HAL2     0.900000E-01   1.00800           0
      9764 MEMB     79       PMPE     H13Y     HAL2     0.900000E-01   1.00800           0
      9765 MEMB     79       PMPE     C314     CTL2    -0.180000       12.0110           0
      9766 MEMB     79       PMPE     H14X     HAL2     0.900000E-01   1.00800           0
      9767 MEMB     79       PMPE     H14Y     HAL2     0.900000E-01   1.00800           0
      9768 MEMB     79       PMPE     C315     CTL2    -0.180000       12.0110           0
      9769 MEMB     79       PMPE     H15X     HAL2     0.900000E-01   1.00800           0
      9770 MEMB     79       PMPE     H15Y     HAL2     0.900000E-01   1.00800           0
      9771 MEMB     79       PMPE     C316     CTL3    -0.270000       12.0110           0
      9772 MEMB     79       PMPE     H16X     HAL3     0.900000E-01   1.00800           0
      9773 MEMB     79       PMPE     H16Y     HAL3     0.900000E-01   1.00800           0
      9774 MEMB     79       PMPE     H16Z     HAL3     0.900000E-01   1.00800           0
      9775 MEMB     80       POPE     N        NH3L    -0.300000       14.0070           0
      9776 MEMB     80       POPE     HN1      HCL      0.330000       1.00800           0
      9777 MEMB     80       POPE     HN2      HCL      0.330000       1.00800           0
      9778 MEMB     80       POPE     HN3      HCL      0.330000       1.00800           0
      9779 MEMB     80       POPE     C12      CTL2     0.130000       12.0110           0
      9780 MEMB     80       POPE     H12A     HAL2     0.900000E-01   1.00800           0
      9781 MEMB     80       POPE     H12B     HAL2     0.900000E-01   1.00800           0
      9782 MEMB     80       POPE     C11      CTL2    -0.800000E-01   12.0110           0
      9783 MEMB     80       POPE     H11A     HAL2     0.900000E-01   1.00800           0
      9784 MEMB     80       POPE     H11B     HAL2     0.900000E-01   1.00800           0
      9785 MEMB     80       POPE     P        PL        1.50000       30.9740           0
      9786 MEMB     80       POPE     O13      O2L     -0.780000       15.9994           0
      9787 MEMB     80       POPE     O14      O2L     -0.780000       15.9994           0
      9788 MEMB     80       POPE     O11      OSLP    -0.570000       15.9994           0
      9789 MEMB     80       POPE     O12      OSLP    -0.570000       15.9994           0
      9790 MEMB     80       POPE     C1       CTL2    -0.800000E-01   12.0110           0
      9791 MEMB     80       POPE     HA       HAL2     0.900000E-01   1.00800           0
      9792 MEMB     80       POPE     HB       HAL2     0.900000E-01   1.00800           0
      9793 MEMB     80       POPE     C2       CTL1     0.170000       12.0110           0
      9794 MEMB     80       POPE     HS       HAL1     0.900000E-01   1.00800           0
      9795 MEMB     80       POPE     O21      OSL     -0.490000       15.9994           0
      9796 MEMB     80       POPE     C21      CL       0.900000       12.0110           0
      9797 MEMB     80       POPE     O22      OBL     -0.630000       15.9994           0
      9798 MEMB     80       POPE     C22      CTL2    -0.220000       12.0110           0
      9799 MEMB     80       POPE     H2R      HAL2     0.900000E-01   1.00800           0
      9800 MEMB     80       POPE     H2S      HAL2     0.900000E-01   1.00800           0
      9801 MEMB     80       POPE     C3       CTL2     0.800000E-01   12.0110           0
      9802 MEMB     80       POPE     HX       HAL2     0.900000E-01   1.00800           0
      9803 MEMB     80       POPE     HY       HAL2     0.900000E-01   1.00800           0
      9804 MEMB     80       POPE     O31      OSL     -0.490000       15.9994           0
      9805 MEMB     80       POPE     C31      CL       0.900000       12.0110           0
      9806 MEMB     80       POPE     O32      OBL     -0.630000       15.9994           0
      9807 MEMB     80       POPE     C32      CTL2    -0.220000       12.0110           0
      9808 MEMB     80       POPE     H2X      HAL2     0.900000E-01   1.00800           0
      9809 MEMB     80       POPE     H2Y      HAL2     0.900000E-01   1.00800           0
      9810 MEMB     80       POPE     C23      CTL2    -0.180000       12.0110           0
      9811 MEMB     80       POPE     H3R      HAL2     0.900000E-01   1.00800           0
      9812 MEMB     80       POPE     H3S      HAL2     0.900000E-01   1.00800           0
      9813 MEMB     80       POPE     C24      CTL2    -0.180000       12.0110           0
      9814 MEMB     80       POPE     H4R      HAL2     0.900000E-01   1.00800           0
      9815 MEMB     80       POPE     H4S      HAL2     0.900000E-01   1.00800           0
      9816 MEMB     80       POPE     C25      CTL2    -0.180000       12.0110           0
      9817 MEMB     80       POPE     H5R      HAL2     0.900000E-01   1.00800           0
      9818 MEMB     80       POPE     H5S      HAL2     0.900000E-01   1.00800           0
      9819 MEMB     80       POPE     C26      CTL2    -0.180000       12.0110           0
      9820 MEMB     80       POPE     H6R      HAL2     0.900000E-01   1.00800           0
      9821 MEMB     80       POPE     H6S      HAL2     0.900000E-01   1.00800           0
      9822 MEMB     80       POPE     C27      CTL2    -0.180000       12.0110           0
      9823 MEMB     80       POPE     H7R      HAL2     0.900000E-01   1.00800           0
      9824 MEMB     80       POPE     H7S      HAL2     0.900000E-01   1.00800           0
      9825 MEMB     80       POPE     C28      CTL2    -0.180000       12.0110           0
      9826 MEMB     80       POPE     H8R      HAL2     0.900000E-01   1.00800           0
      9827 MEMB     80       POPE     H8S      HAL2     0.900000E-01   1.00800           0
      9828 MEMB     80       POPE     C29      CEL1    -0.150000       12.0110           0
      9829 MEMB     80       POPE     H91      HEL1     0.150000       1.00800           0
      9830 MEMB     80       POPE     C210     CEL1    -0.150000       12.0110           0
      9831 MEMB     80       POPE     H101     HEL1     0.150000       1.00800           0
      9832 MEMB     80       POPE     C211     CTL2    -0.180000       12.0110           0
      9833 MEMB     80       POPE     H11R     HAL2     0.900000E-01   1.00800           0
      9834 MEMB     80       POPE     H11S     HAL2     0.900000E-01   1.00800           0
      9835 MEMB     80       POPE     C212     CTL2    -0.180000       12.0110           0
      9836 MEMB     80       POPE     H12R     HAL2     0.900000E-01   1.00800           0
      9837 MEMB     80       POPE     H12S     HAL2     0.900000E-01   1.00800           0
      9838 MEMB     80       POPE     C213     CTL2    -0.180000       12.0110           0
      9839 MEMB     80       POPE     H13R     HAL2     0.900000E-01   1.00800           0
      9840 MEMB     80       POPE     H13S     HAL2     0.900000E-01   1.00800           0
      9841 MEMB     80       POPE     C214     CTL2    -0.180000       12.0110           0
      9842 MEMB     80       POPE     H14R     HAL2     0.900000E-01   1.00800           0
      9843 MEMB     80       POPE     H14S     HAL2     0.900000E-01   1.00800           0
      9844 MEMB     80       POPE     C215     CTL2    -0.180000       12.0110           0
      9845 MEMB     80       POPE     H15R     HAL2     0.900000E-01   1.00800           0
      9846 MEMB     80       POPE     H15S     HAL2     0.900000E-01   1.00800           0
      9847 MEMB     80       POPE     C216     CTL2    -0.180000       12.0110           0
      9848 MEMB     80       POPE     H16R     HAL2     0.900000E-01   1.00800           0
      9849 MEMB     80       POPE     H16S     HAL2     0.900000E-01   1.00800           0
      9850 MEMB     80       POPE     C217     CTL2    -0.180000       12.0110           0
      9851 MEMB     80       POPE     H17R     HAL2     0.900000E-01   1.00800           0
      9852 MEMB     80       POPE     H17S     HAL2     0.900000E-01   1.00800           0
      9853 MEMB     80       POPE     C218     CTL3    -0.270000       12.0110           0
      9854 MEMB     80       POPE     H18R     HAL3     0.900000E-01   1.00800           0
      9855 MEMB     80       POPE     H18S     HAL3     0.900000E-01   1.00800           0
      9856 MEMB     80       POPE     H18T     HAL3     0.900000E-01   1.00800           0
      9857 MEMB     80       POPE     C33      CTL2    -0.180000       12.0110           0
      9858 MEMB     80       POPE     H3X      HAL2     0.900000E-01   1.00800           0
      9859 MEMB     80       POPE     H3Y      HAL2     0.900000E-01   1.00800           0
      9860 MEMB     80       POPE     C34      CTL2    -0.180000       12.0110           0
      9861 MEMB     80       POPE     H4X      HAL2     0.900000E-01   1.00800           0
      9862 MEMB     80       POPE     H4Y      HAL2     0.900000E-01   1.00800           0
      9863 MEMB     80       POPE     C35      CTL2    -0.180000       12.0110           0
      9864 MEMB     80       POPE     H5X      HAL2     0.900000E-01   1.00800           0
      9865 MEMB     80       POPE     H5Y      HAL2     0.900000E-01   1.00800           0
      9866 MEMB     80       POPE     C36      CTL2    -0.180000       12.0110           0
      9867 MEMB     80       POPE     H6X      HAL2     0.900000E-01   1.00800           0
      9868 MEMB     80       POPE     H6Y      HAL2     0.900000E-01   1.00800           0
      9869 MEMB     80       POPE     C37      CTL2    -0.180000       12.0110           0
      9870 MEMB     80       POPE     H7X      HAL2     0.900000E-01   1.00800           0
      9871 MEMB     80       POPE     H7Y      HAL2     0.900000E-01   1.00800           0
      9872 MEMB     80       POPE     C38      CTL2    -0.180000       12.0110           0
      9873 MEMB     80       POPE     H8X      HAL2     0.900000E-01   1.00800           0
      9874 MEMB     80       POPE     H8Y      HAL2     0.900000E-01   1.00800           0
      9875 MEMB     80       POPE     C39      CTL2    -0.180000       12.0110           0
      9876 MEMB     80       POPE     H9X      HAL2     0.900000E-01   1.00800           0
      9877 MEMB     80       POPE     H9Y      HAL2     0.900000E-01   1.00800           0
      9878 MEMB     80       POPE     C310     CTL2    -0.180000       12.0110           0
      9879 MEMB     80       POPE     H10X     HAL2     0.900000E-01   1.00800           0
      9880 MEMB     80       POPE     H10Y     HAL2     0.900000E-01   1.00800           0
      9881 MEMB     80       POPE     C311     CTL2    -0.180000       12.0110           0
      9882 MEMB     80       POPE     H11X     HAL2     0.900000E-01   1.00800           0
      9883 MEMB     80       POPE     H11Y     HAL2     0.900000E-01   1.00800           0
      9884 MEMB     80       POPE     C312     CTL2    -0.180000       12.0110           0
      9885 MEMB     80       POPE     H12X     HAL2     0.900000E-01   1.00800           0
      9886 MEMB     80       POPE     H12Y     HAL2     0.900000E-01   1.00800           0
      9887 MEMB     80       POPE     C313     CTL2    -0.180000       12.0110           0
      9888 MEMB     80       POPE     H13X     HAL2     0.900000E-01   1.00800           0
      9889 MEMB     80       POPE     H13Y     HAL2     0.900000E-01   1.00800           0
      9890 MEMB     80       POPE     C314     CTL2    -0.180000       12.0110           0
      9891 MEMB     80       POPE     H14X     HAL2     0.900000E-01   1.00800           0
      9892 MEMB     80       POPE     H14Y     HAL2     0.900000E-01   1.00800           0
      9893 MEMB     80       POPE     C315     CTL2    -0.180000       12.0110           0
      9894 MEMB     80       POPE     H15X     HAL2     0.900000E-01   1.00800           0
      9895 MEMB     80       POPE     H15Y     HAL2     0.900000E-01   1.00800           0
      9896 MEMB     80       POPE     C316     CTL3    -0.270000       12.0110           0
      9897 MEMB     80       POPE     H16X     HAL3     0.900000E-01   1.00800           0
      9898 MEMB     80       POPE     H16Y     HAL3     0.900000E-01   1.00800           0
      9899 MEMB     80       POPE     H16Z     HAL3     0.900000E-01   1.00800           0
      9900 MEMB     81       POPE     N        NH3L    -0.300000       14.0070           0
      9901 MEMB     81       POPE     HN1      HCL      0.330000       1.00800           0
      9902 MEMB     81       POPE     HN2      HCL      0.330000       1.00800           0
      9903 MEMB     81       POPE     HN3      HCL      0.330000       1.00800           0
      9904 MEMB     81       POPE     C12      CTL2     0.130000       12.0110           0
      9905 MEMB     81       POPE     H12A     HAL2     0.900000E-01   1.00800           0
      9906 MEMB     81       POPE     H12B     HAL2     0.900000E-01   1.00800           0
      9907 MEMB     81       POPE     C11      CTL2    -0.800000E-01   12.0110           0
      9908 MEMB     81       POPE     H11A     HAL2     0.900000E-01   1.00800           0
      9909 MEMB     81       POPE     H11B     HAL2     0.900000E-01   1.00800           0
      9910 MEMB     81       POPE     P        PL        1.50000       30.9740           0
      9911 MEMB     81       POPE     O13      O2L     -0.780000       15.9994           0
      9912 MEMB     81       POPE     O14      O2L     -0.780000       15.9994           0
      9913 MEMB     81       POPE     O11      OSLP    -0.570000       15.9994           0
      9914 MEMB     81       POPE     O12      OSLP    -0.570000       15.9994           0
      9915 MEMB     81       POPE     C1       CTL2    -0.800000E-01   12.0110           0
      9916 MEMB     81       POPE     HA       HAL2     0.900000E-01   1.00800           0
      9917 MEMB     81       POPE     HB       HAL2     0.900000E-01   1.00800           0
      9918 MEMB     81       POPE     C2       CTL1     0.170000       12.0110           0
      9919 MEMB     81       POPE     HS       HAL1     0.900000E-01   1.00800           0
      9920 MEMB     81       POPE     O21      OSL     -0.490000       15.9994           0
      9921 MEMB     81       POPE     C21      CL       0.900000       12.0110           0
      9922 MEMB     81       POPE     O22      OBL     -0.630000       15.9994           0
      9923 MEMB     81       POPE     C22      CTL2    -0.220000       12.0110           0
      9924 MEMB     81       POPE     H2R      HAL2     0.900000E-01   1.00800           0
      9925 MEMB     81       POPE     H2S      HAL2     0.900000E-01   1.00800           0
      9926 MEMB     81       POPE     C3       CTL2     0.800000E-01   12.0110           0
      9927 MEMB     81       POPE     HX       HAL2     0.900000E-01   1.00800           0
      9928 MEMB     81       POPE     HY       HAL2     0.900000E-01   1.00800           0
      9929 MEMB     81       POPE     O31      OSL     -0.490000       15.9994           0
      9930 MEMB     81       POPE     C31      CL       0.900000       12.0110           0
      9931 MEMB     81       POPE     O32      OBL     -0.630000       15.9994           0
      9932 MEMB     81       POPE     C32      CTL2    -0.220000       12.0110           0
      9933 MEMB     81       POPE     H2X      HAL2     0.900000E-01   1.00800           0
      9934 MEMB     81       POPE     H2Y      HAL2     0.900000E-01   1.00800           0
      9935 MEMB     81       POPE     C23      CTL2    -0.180000       12.0110           0
      9936 MEMB     81       POPE     H3R      HAL2     0.900000E-01   1.00800           0
      9937 MEMB     81       POPE     H3S      HAL2     0.900000E-01   1.00800           0
      9938 MEMB     81       POPE     C24      CTL2    -0.180000       12.0110           0
      9939 MEMB     81       POPE     H4R      HAL2     0.900000E-01   1.00800           0
      9940 MEMB     81       POPE     H4S      HAL2     0.900000E-01   1.00800           0
      9941 MEMB     81       POPE     C25      CTL2    -0.180000       12.0110           0
      9942 MEMB     81       POPE     H5R      HAL2     0.900000E-01   1.00800           0
      9943 MEMB     81       POPE     H5S      HAL2     0.900000E-01   1.00800           0
      9944 MEMB     81       POPE     C26      CTL2    -0.180000       12.0110           0
      9945 MEMB     81       POPE     H6R      HAL2     0.900000E-01   1.00800           0
      9946 MEMB     81       POPE     H6S      HAL2     0.900000E-01   1.00800           0
      9947 MEMB     81       POPE     C27      CTL2    -0.180000       12.0110           0
      9948 MEMB     81       POPE     H7R      HAL2     0.900000E-01   1.00800           0
      9949 MEMB     81       POPE     H7S      HAL2     0.900000E-01   1.00800           0
      9950 MEMB     81       POPE     C28      CTL2    -0.180000       12.0110           0
      9951 MEMB     81       POPE     H8R      HAL2     0.900000E-01   1.00800           0
      9952 MEMB     81       POPE     H8S      HAL2     0.900000E-01   1.00800           0
      9953 MEMB     81       POPE     C29      CEL1    -0.150000       12.0110           0
      9954 MEMB     81       POPE     H91      HEL1     0.150000       1.00800           0
      9955 MEMB     81       POPE     C210     CEL1    -0.150000       12.0110           0
      9956 MEMB     81       POPE     H101     HEL1     0.150000       1.00800           0
      9957 MEMB     81       POPE     C211     CTL2    -0.180000       12.0110           0
      9958 MEMB     81       POPE     H11R     HAL2     0.900000E-01   1.00800           0
      9959 MEMB     81       POPE     H11S     HAL2     0.900000E-01   1.00800           0
      9960 MEMB     81       POPE     C212     CTL2    -0.180000       12.0110           0
      9961 MEMB     81       POPE     H12R     HAL2     0.900000E-01   1.00800           0
      9962 MEMB     81       POPE     H12S     HAL2     0.900000E-01   1.00800           0
      9963 MEMB     81       POPE     C213     CTL2    -0.180000       12.0110           0
      9964 MEMB     81       POPE     H13R     HAL2     0.900000E-01   1.00800           0
      9965 MEMB     81       POPE     H13S     HAL2     0.900000E-01   1.00800           0
      9966 MEMB     81       POPE     C214     CTL2    -0.180000       12.0110           0
      9967 MEMB     81       POPE     H14R     HAL2     0.900000E-01   1.00800           0
      9968 MEMB     81       POPE     H14S     HAL2     0.900000E-01   1.00800           0
      9969 MEMB     81       POPE     C215     CTL2    -0.180000       12.0110           0
      9970 MEMB     81       POPE     H15R     HAL2     0.900000E-01   1.00800           0
      9971 MEMB     81       POPE     H15S     HAL2     0.900000E-01   1.00800           0
      9972 MEMB     81       POPE     C216     CTL2    -0.180000       12.0110           0
      9973 MEMB     81       POPE     H16R     HAL2     0.900000E-01   1.00800           0
      9974 MEMB     81       POPE     H16S     HAL2     0.900000E-01   1.00800           0
      9975 MEMB     81       POPE     C217     CTL2    -0.180000       12.0110           0
      9976 MEMB     81       POPE     H17R     HAL2     0.900000E-01   1.00800           0
      9977 MEMB     81       POPE     H17S     HAL2     0.900000E-01   1.00800           0
      9978 MEMB     81       POPE     C218     CTL3    -0.270000       12.0110           0
      9979 MEMB     81       POPE     H18R     HAL3     0.900000E-01   1.00800           0
      9980 MEMB     81       POPE     H18S     HAL3     0.900000E-01   1.00800           0
      9981 MEMB     81       POPE     H18T     HAL3     0.900000E-01   1.00800           0
      9982 MEMB     81       POPE     C33      CTL2    -0.180000       12.0110           0
      9983 MEMB     81       POPE     H3X      HAL2     0.900000E-01   1.00800           0
      9984 MEMB     81       POPE     H3Y      HAL2     0.900000E-01   1.00800           0
      9985 MEMB     81       POPE     C34      CTL2    -0.180000       12.0110           0
      9986 MEMB     81       POPE     H4X      HAL2     0.900000E-01   1.00800           0
      9987 MEMB     81       POPE     H4Y      HAL2     0.900000E-01   1.00800           0
      9988 MEMB     81       POPE     C35      CTL2    -0.180000       12.0110           0
      9989 MEMB     81       POPE     H5X      HAL2     0.900000E-01   1.00800           0
      9990 MEMB     81       POPE     H5Y      HAL2     0.900000E-01   1.00800           0
      9991 MEMB     81       POPE     C36      CTL2    -0.180000       12.0110           0
      9992 MEMB     81       POPE     H6X      HAL2     0.900000E-01   1.00800           0
      9993 MEMB     81       POPE     H6Y      HAL2     0.900000E-01   1.00800           0
      9994 MEMB     81       POPE     C37      CTL2    -0.180000       12.0110           0
      9995 MEMB     81       POPE     H7X      HAL2     0.900000E-01   1.00800           0
      9996 MEMB     81       POPE     H7Y      HAL2     0.900000E-01   1.00800           0
      9997 MEMB     81       POPE     C38      CTL2    -0.180000       12.0110           0
      9998 MEMB     81       POPE     H8X      HAL2     0.900000E-01   1.00800           0
      9999 MEMB     81       POPE     H8Y      HAL2     0.900000E-01   1.00800           0
     10000 MEMB     81       POPE     C39      CTL2    -0.180000       12.0110           0
     10001 MEMB     81       POPE     H9X      HAL2     0.900000E-01   1.00800           0
     10002 MEMB     81       POPE     H9Y      HAL2     0.900000E-01   1.00800           0
     10003 MEMB     81       POPE     C310     CTL2    -0.180000       12.0110           0
     10004 MEMB     81       POPE     H10X     HAL2     0.900000E-01   1.00800           0
     10005 MEMB     81       POPE     H10Y     HAL2     0.900000E-01   1.00800           0
     10006 MEMB     81       POPE     C311     CTL2    -0.180000       12.0110           0
     10007 MEMB     81       POPE     H11X     HAL2     0.900000E-01   1.00800           0
     10008 MEMB     81       POPE     H11Y     HAL2     0.900000E-01   1.00800           0
     10009 MEMB     81       POPE     C312     CTL2    -0.180000       12.0110           0
     10010 MEMB     81       POPE     H12X     HAL2     0.900000E-01   1.00800           0
     10011 MEMB     81       POPE     H12Y     HAL2     0.900000E-01   1.00800           0
     10012 MEMB     81       POPE     C313     CTL2    -0.180000       12.0110           0
     10013 MEMB     81       POPE     H13X     HAL2     0.900000E-01   1.00800           0
     10014 MEMB     81       POPE     H13Y     HAL2     0.900000E-01   1.00800           0
     10015 MEMB     81       POPE     C314     CTL2    -0.180000       12.0110           0
     10016 MEMB     81       POPE     H14X     HAL2     0.900000E-01   1.00800           0
     10017 MEMB     81       POPE     H14Y     HAL2     0.900000E-01   1.00800           0
     10018 MEMB     81       POPE     C315     CTL2    -0.180000       12.0110           0
     10019 MEMB     81       POPE     H15X     HAL2     0.900000E-01   1.00800           0
     10020 MEMB     81       POPE     H15Y     HAL2     0.900000E-01   1.00800           0
     10021 MEMB     81       POPE     C316     CTL3    -0.270000       12.0110           0
     10022 MEMB     81       POPE     H16X     HAL3     0.900000E-01   1.00800           0
     10023 MEMB     81       POPE     H16Y     HAL3     0.900000E-01   1.00800           0
     10024 MEMB     81       POPE     H16Z     HAL3     0.900000E-01   1.00800           0
     10025 MEMB     82       PMPE     N        NH3L    -0.300000       14.0070           0
     10026 MEMB     82       PMPE     HN1      HCL      0.330000       1.00800           0
     10027 MEMB     82       PMPE     HN2      HCL      0.330000       1.00800           0
     10028 MEMB     82       PMPE     HN3      HCL      0.330000       1.00800           0
     10029 MEMB     82       PMPE     C12      CTL2     0.130000       12.0110           0
     10030 MEMB     82       PMPE     H12A     HAL2     0.900000E-01   1.00800           0
     10031 MEMB     82       PMPE     H12B     HAL2     0.900000E-01   1.00800           0
     10032 MEMB     82       PMPE     C11      CTL2    -0.800000E-01   12.0110           0
     10033 MEMB     82       PMPE     H11A     HAL2     0.900000E-01   1.00800           0
     10034 MEMB     82       PMPE     H11B     HAL2     0.900000E-01   1.00800           0
     10035 MEMB     82       PMPE     P        PL        1.50000       30.9740           0
     10036 MEMB     82       PMPE     O13      O2L     -0.780000       15.9994           0
     10037 MEMB     82       PMPE     O14      O2L     -0.780000       15.9994           0
     10038 MEMB     82       PMPE     O11      OSLP    -0.570000       15.9994           0
     10039 MEMB     82       PMPE     O12      OSLP    -0.570000       15.9994           0
     10040 MEMB     82       PMPE     C1       CTL2    -0.800000E-01   12.0110           0
     10041 MEMB     82       PMPE     HA       HAL2     0.900000E-01   1.00800           0
     10042 MEMB     82       PMPE     HB       HAL2     0.900000E-01   1.00800           0
     10043 MEMB     82       PMPE     C2       CTL1     0.170000       12.0110           0
     10044 MEMB     82       PMPE     HS       HAL1     0.900000E-01   1.00800           0
     10045 MEMB     82       PMPE     O21      OSL     -0.490000       15.9994           0
     10046 MEMB     82       PMPE     C21      CL       0.900000       12.0110           0
     10047 MEMB     82       PMPE     O22      OBL     -0.630000       15.9994           0
     10048 MEMB     82       PMPE     C22      CTL2    -0.220000       12.0110           0
     10049 MEMB     82       PMPE     H2R      HAL2     0.900000E-01   1.00800           0
     10050 MEMB     82       PMPE     H2S      HAL2     0.900000E-01   1.00800           0
     10051 MEMB     82       PMPE     C3       CTL2     0.800000E-01   12.0110           0
     10052 MEMB     82       PMPE     HX       HAL2     0.900000E-01   1.00800           0
     10053 MEMB     82       PMPE     HY       HAL2     0.900000E-01   1.00800           0
     10054 MEMB     82       PMPE     O31      OSL     -0.490000       15.9994           0
     10055 MEMB     82       PMPE     C31      CL       0.900000       12.0110           0
     10056 MEMB     82       PMPE     O32      OBL     -0.630000       15.9994           0
     10057 MEMB     82       PMPE     C32      CTL2    -0.220000       12.0110           0
     10058 MEMB     82       PMPE     H2X      HAL2     0.900000E-01   1.00800           0
     10059 MEMB     82       PMPE     H2Y      HAL2     0.900000E-01   1.00800           0
     10060 MEMB     82       PMPE     C23      CTL2    -0.180000       12.0110           0
     10061 MEMB     82       PMPE     H3R      HAL2     0.900000E-01   1.00800           0
     10062 MEMB     82       PMPE     H3S      HAL2     0.900000E-01   1.00800           0
     10063 MEMB     82       PMPE     C24      CTL2    -0.180000       12.0110           0
     10064 MEMB     82       PMPE     H4R      HAL2     0.900000E-01   1.00800           0
     10065 MEMB     82       PMPE     H4S      HAL2     0.900000E-01   1.00800           0
     10066 MEMB     82       PMPE     C25      CTL2    -0.180000       12.0110           0
     10067 MEMB     82       PMPE     H5R      HAL2     0.900000E-01   1.00800           0
     10068 MEMB     82       PMPE     H5S      HAL2     0.900000E-01   1.00800           0
     10069 MEMB     82       PMPE     C26      CTL2    -0.180000       12.0110           0
     10070 MEMB     82       PMPE     H6R      HAL2     0.900000E-01   1.00800           0
     10071 MEMB     82       PMPE     H6S      HAL2     0.900000E-01   1.00800           0
     10072 MEMB     82       PMPE     C27      CTL2    -0.180000       12.0110           0
     10073 MEMB     82       PMPE     H7R      HAL2     0.900000E-01   1.00800           0
     10074 MEMB     82       PMPE     H7S      HAL2     0.900000E-01   1.00800           0
     10075 MEMB     82       PMPE     C28      CTL2    -0.180000       12.0110           0
     10076 MEMB     82       PMPE     H8R      HAL2     0.900000E-01   1.00800           0
     10077 MEMB     82       PMPE     H8S      HAL2     0.900000E-01   1.00800           0
     10078 MEMB     82       PMPE     C29      CG3RC1  -0.900000E-01   12.0110           0
     10079 MEMB     82       PMPE     H9R      HGA1     0.900000E-01   1.00800           0
     10080 MEMB     82       PMPE     C217     CG3C31  -0.180000       12.0110           0
     10081 MEMB     82       PMPE     H17R     HGA2     0.900000E-01   1.00800           0
     10082 MEMB     82       PMPE     H17S     HGA2     0.900000E-01   1.00800           0
     10083 MEMB     82       PMPE     C210     CG3RC1  -0.900000E-01   12.0110           0
     10084 MEMB     82       PMPE     H10R     HGA1     0.900000E-01   1.00800           0
     10085 MEMB     82       PMPE     C211     CTL2    -0.180000       12.0110           0
     10086 MEMB     82       PMPE     H11R     HAL2     0.900000E-01   1.00800           0
     10087 MEMB     82       PMPE     H11S     HAL2     0.900000E-01   1.00800           0
     10088 MEMB     82       PMPE     C212     CTL2    -0.180000       12.0110           0
     10089 MEMB     82       PMPE     H12R     HAL2     0.900000E-01   1.00800           0
     10090 MEMB     82       PMPE     H12S     HAL2     0.900000E-01   1.00800           0
     10091 MEMB     82       PMPE     C213     CTL2    -0.180000       12.0110           0
     10092 MEMB     82       PMPE     H13R     HAL2     0.900000E-01   1.00800           0
     10093 MEMB     82       PMPE     H13S     HAL2     0.900000E-01   1.00800           0
     10094 MEMB     82       PMPE     C214     CTL2    -0.180000       12.0110           0
     10095 MEMB     82       PMPE     H14R     HAL2     0.900000E-01   1.00800           0
     10096 MEMB     82       PMPE     H14S     HAL2     0.900000E-01   1.00800           0
     10097 MEMB     82       PMPE     C215     CTL2    -0.180000       12.0110           0
     10098 MEMB     82       PMPE     H15R     HAL2     0.900000E-01   1.00800           0
     10099 MEMB     82       PMPE     H15S     HAL2     0.900000E-01   1.00800           0
     10100 MEMB     82       PMPE     C216     CTL3    -0.270000       12.0110           0
     10101 MEMB     82       PMPE     H16R     HAL3     0.900000E-01   1.00800           0
     10102 MEMB     82       PMPE     H16S     HAL3     0.900000E-01   1.00800           0
     10103 MEMB     82       PMPE     H16T     HAL3     0.900000E-01   1.00800           0
     10104 MEMB     82       PMPE     C33      CTL2    -0.180000       12.0110           0
     10105 MEMB     82       PMPE     H3X      HAL2     0.900000E-01   1.00800           0
     10106 MEMB     82       PMPE     H3Y      HAL2     0.900000E-01   1.00800           0
     10107 MEMB     82       PMPE     C34      CTL2    -0.180000       12.0110           0
     10108 MEMB     82       PMPE     H4X      HAL2     0.900000E-01   1.00800           0
     10109 MEMB     82       PMPE     H4Y      HAL2     0.900000E-01   1.00800           0
     10110 MEMB     82       PMPE     C35      CTL2    -0.180000       12.0110           0
     10111 MEMB     82       PMPE     H5X      HAL2     0.900000E-01   1.00800           0
     10112 MEMB     82       PMPE     H5Y      HAL2     0.900000E-01   1.00800           0
     10113 MEMB     82       PMPE     C36      CTL2    -0.180000       12.0110           0
     10114 MEMB     82       PMPE     H6X      HAL2     0.900000E-01   1.00800           0
     10115 MEMB     82       PMPE     H6Y      HAL2     0.900000E-01   1.00800           0
     10116 MEMB     82       PMPE     C37      CTL2    -0.180000       12.0110           0
     10117 MEMB     82       PMPE     H7X      HAL2     0.900000E-01   1.00800           0
     10118 MEMB     82       PMPE     H7Y      HAL2     0.900000E-01   1.00800           0
     10119 MEMB     82       PMPE     C38      CTL2    -0.180000       12.0110           0
     10120 MEMB     82       PMPE     H8X      HAL2     0.900000E-01   1.00800           0
     10121 MEMB     82       PMPE     H8Y      HAL2     0.900000E-01   1.00800           0
     10122 MEMB     82       PMPE     C39      CTL2    -0.180000       12.0110           0
     10123 MEMB     82       PMPE     H9X      HAL2     0.900000E-01   1.00800           0
     10124 MEMB     82       PMPE     H9Y      HAL2     0.900000E-01   1.00800           0
     10125 MEMB     82       PMPE     C310     CTL2    -0.180000       12.0110           0
     10126 MEMB     82       PMPE     H10X     HAL2     0.900000E-01   1.00800           0
     10127 MEMB     82       PMPE     H10Y     HAL2     0.900000E-01   1.00800           0
     10128 MEMB     82       PMPE     C311     CTL2    -0.180000       12.0110           0
     10129 MEMB     82       PMPE     H11X     HAL2     0.900000E-01   1.00800           0
     10130 MEMB     82       PMPE     H11Y     HAL2     0.900000E-01   1.00800           0
     10131 MEMB     82       PMPE     C312     CTL2    -0.180000       12.0110           0
     10132 MEMB     82       PMPE     H12X     HAL2     0.900000E-01   1.00800           0
     10133 MEMB     82       PMPE     H12Y     HAL2     0.900000E-01   1.00800           0
     10134 MEMB     82       PMPE     C313     CTL2    -0.180000       12.0110           0
     10135 MEMB     82       PMPE     H13X     HAL2     0.900000E-01   1.00800           0
     10136 MEMB     82       PMPE     H13Y     HAL2     0.900000E-01   1.00800           0
     10137 MEMB     82       PMPE     C314     CTL2    -0.180000       12.0110           0
     10138 MEMB     82       PMPE     H14X     HAL2     0.900000E-01   1.00800           0
     10139 MEMB     82       PMPE     H14Y     HAL2     0.900000E-01   1.00800           0
     10140 MEMB     82       PMPE     C315     CTL2    -0.180000       12.0110           0
     10141 MEMB     82       PMPE     H15X     HAL2     0.900000E-01   1.00800           0
     10142 MEMB     82       PMPE     H15Y     HAL2     0.900000E-01   1.00800           0
     10143 MEMB     82       PMPE     C316     CTL3    -0.270000       12.0110           0
     10144 MEMB     82       PMPE     H16X     HAL3     0.900000E-01   1.00800           0
     10145 MEMB     82       PMPE     H16Y     HAL3     0.900000E-01   1.00800           0
     10146 MEMB     82       PMPE     H16Z     HAL3     0.900000E-01   1.00800           0
     10147 MEMB     83       PMPE     N        NH3L    -0.300000       14.0070           0
     10148 MEMB     83       PMPE     HN1      HCL      0.330000       1.00800           0
     10149 MEMB     83       PMPE     HN2      HCL      0.330000       1.00800           0
     10150 MEMB     83       PMPE     HN3      HCL      0.330000       1.00800           0
     10151 MEMB     83       PMPE     C12      CTL2     0.130000       12.0110           0
     10152 MEMB     83       PMPE     H12A     HAL2     0.900000E-01   1.00800           0
     10153 MEMB     83       PMPE     H12B     HAL2     0.900000E-01   1.00800           0
     10154 MEMB     83       PMPE     C11      CTL2    -0.800000E-01   12.0110           0
     10155 MEMB     83       PMPE     H11A     HAL2     0.900000E-01   1.00800           0
     10156 MEMB     83       PMPE     H11B     HAL2     0.900000E-01   1.00800           0
     10157 MEMB     83       PMPE     P        PL        1.50000       30.9740           0
     10158 MEMB     83       PMPE     O13      O2L     -0.780000       15.9994           0
     10159 MEMB     83       PMPE     O14      O2L     -0.780000       15.9994           0
     10160 MEMB     83       PMPE     O11      OSLP    -0.570000       15.9994           0
     10161 MEMB     83       PMPE     O12      OSLP    -0.570000       15.9994           0
     10162 MEMB     83       PMPE     C1       CTL2    -0.800000E-01   12.0110           0
     10163 MEMB     83       PMPE     HA       HAL2     0.900000E-01   1.00800           0
     10164 MEMB     83       PMPE     HB       HAL2     0.900000E-01   1.00800           0
     10165 MEMB     83       PMPE     C2       CTL1     0.170000       12.0110           0
     10166 MEMB     83       PMPE     HS       HAL1     0.900000E-01   1.00800           0
     10167 MEMB     83       PMPE     O21      OSL     -0.490000       15.9994           0
     10168 MEMB     83       PMPE     C21      CL       0.900000       12.0110           0
     10169 MEMB     83       PMPE     O22      OBL     -0.630000       15.9994           0
     10170 MEMB     83       PMPE     C22      CTL2    -0.220000       12.0110           0
     10171 MEMB     83       PMPE     H2R      HAL2     0.900000E-01   1.00800           0
     10172 MEMB     83       PMPE     H2S      HAL2     0.900000E-01   1.00800           0
     10173 MEMB     83       PMPE     C3       CTL2     0.800000E-01   12.0110           0
     10174 MEMB     83       PMPE     HX       HAL2     0.900000E-01   1.00800           0
     10175 MEMB     83       PMPE     HY       HAL2     0.900000E-01   1.00800           0
     10176 MEMB     83       PMPE     O31      OSL     -0.490000       15.9994           0
     10177 MEMB     83       PMPE     C31      CL       0.900000       12.0110           0
     10178 MEMB     83       PMPE     O32      OBL     -0.630000       15.9994           0
     10179 MEMB     83       PMPE     C32      CTL2    -0.220000       12.0110           0
     10180 MEMB     83       PMPE     H2X      HAL2     0.900000E-01   1.00800           0
     10181 MEMB     83       PMPE     H2Y      HAL2     0.900000E-01   1.00800           0
     10182 MEMB     83       PMPE     C23      CTL2    -0.180000       12.0110           0
     10183 MEMB     83       PMPE     H3R      HAL2     0.900000E-01   1.00800           0
     10184 MEMB     83       PMPE     H3S      HAL2     0.900000E-01   1.00800           0
     10185 MEMB     83       PMPE     C24      CTL2    -0.180000       12.0110           0
     10186 MEMB     83       PMPE     H4R      HAL2     0.900000E-01   1.00800           0
     10187 MEMB     83       PMPE     H4S      HAL2     0.900000E-01   1.00800           0
     10188 MEMB     83       PMPE     C25      CTL2    -0.180000       12.0110           0
     10189 MEMB     83       PMPE     H5R      HAL2     0.900000E-01   1.00800           0
     10190 MEMB     83       PMPE     H5S      HAL2     0.900000E-01   1.00800           0
     10191 MEMB     83       PMPE     C26      CTL2    -0.180000       12.0110           0
     10192 MEMB     83       PMPE     H6R      HAL2     0.900000E-01   1.00800           0
     10193 MEMB     83       PMPE     H6S      HAL2     0.900000E-01   1.00800           0
     10194 MEMB     83       PMPE     C27      CTL2    -0.180000       12.0110           0
     10195 MEMB     83       PMPE     H7R      HAL2     0.900000E-01   1.00800           0
     10196 MEMB     83       PMPE     H7S      HAL2     0.900000E-01   1.00800           0
     10197 MEMB     83       PMPE     C28      CTL2    -0.180000       12.0110           0
     10198 MEMB     83       PMPE     H8R      HAL2     0.900000E-01   1.00800           0
     10199 MEMB     83       PMPE     H8S      HAL2     0.900000E-01   1.00800           0
     10200 MEMB     83       PMPE     C29      CG3RC1  -0.900000E-01   12.0110           0
     10201 MEMB     83       PMPE     H9R      HGA1     0.900000E-01   1.00800           0
     10202 MEMB     83       PMPE     C217     CG3C31  -0.180000       12.0110           0
     10203 MEMB     83       PMPE     H17R     HGA2     0.900000E-01   1.00800           0
     10204 MEMB     83       PMPE     H17S     HGA2     0.900000E-01   1.00800           0
     10205 MEMB     83       PMPE     C210     CG3RC1  -0.900000E-01   12.0110           0
     10206 MEMB     83       PMPE     H10R     HGA1     0.900000E-01   1.00800           0
     10207 MEMB     83       PMPE     C211     CTL2    -0.180000       12.0110           0
     10208 MEMB     83       PMPE     H11R     HAL2     0.900000E-01   1.00800           0
     10209 MEMB     83       PMPE     H11S     HAL2     0.900000E-01   1.00800           0
     10210 MEMB     83       PMPE     C212     CTL2    -0.180000       12.0110           0
     10211 MEMB     83       PMPE     H12R     HAL2     0.900000E-01   1.00800           0
     10212 MEMB     83       PMPE     H12S     HAL2     0.900000E-01   1.00800           0
     10213 MEMB     83       PMPE     C213     CTL2    -0.180000       12.0110           0
     10214 MEMB     83       PMPE     H13R     HAL2     0.900000E-01   1.00800           0
     10215 MEMB     83       PMPE     H13S     HAL2     0.900000E-01   1.00800           0
     10216 MEMB     83       PMPE     C214     CTL2    -0.180000       12.0110           0
     10217 MEMB     83       PMPE     H14R     HAL2     0.900000E-01   1.00800           0
     10218 MEMB     83       PMPE     H14S     HAL2     0.900000E-01   1.00800           0
     10219 MEMB     83       PMPE     C215     CTL2    -0.180000       12.0110           0
     10220 MEMB     83       PMPE     H15R     HAL2     0.900000E-01   1.00800           0
     10221 MEMB     83       PMPE     H15S     HAL2     0.900000E-01   1.00800           0
     10222 MEMB     83       PMPE     C216     CTL3    -0.270000       12.0110           0
     10223 MEMB     83       PMPE     H16R     HAL3     0.900000E-01   1.00800           0
     10224 MEMB     83       PMPE     H16S     HAL3     0.900000E-01   1.00800           0
     10225 MEMB     83       PMPE     H16T     HAL3     0.900000E-01   1.00800           0
     10226 MEMB     83       PMPE     C33      CTL2    -0.180000       12.0110           0
     10227 MEMB     83       PMPE     H3X      HAL2     0.900000E-01   1.00800           0
     10228 MEMB     83       PMPE     H3Y      HAL2     0.900000E-01   1.00800           0
     10229 MEMB     83       PMPE     C34      CTL2    -0.180000       12.0110           0
     10230 MEMB     83       PMPE     H4X      HAL2     0.900000E-01   1.00800           0
     10231 MEMB     83       PMPE     H4Y      HAL2     0.900000E-01   1.00800           0
     10232 MEMB     83       PMPE     C35      CTL2    -0.180000       12.0110           0
     10233 MEMB     83       PMPE     H5X      HAL2     0.900000E-01   1.00800           0
     10234 MEMB     83       PMPE     H5Y      HAL2     0.900000E-01   1.00800           0
     10235 MEMB     83       PMPE     C36      CTL2    -0.180000       12.0110           0
     10236 MEMB     83       PMPE     H6X      HAL2     0.900000E-01   1.00800           0
     10237 MEMB     83       PMPE     H6Y      HAL2     0.900000E-01   1.00800           0
     10238 MEMB     83       PMPE     C37      CTL2    -0.180000       12.0110           0
     10239 MEMB     83       PMPE     H7X      HAL2     0.900000E-01   1.00800           0
     10240 MEMB     83       PMPE     H7Y      HAL2     0.900000E-01   1.00800           0
     10241 MEMB     83       PMPE     C38      CTL2    -0.180000       12.0110           0
     10242 MEMB     83       PMPE     H8X      HAL2     0.900000E-01   1.00800           0
     10243 MEMB     83       PMPE     H8Y      HAL2     0.900000E-01   1.00800           0
     10244 MEMB     83       PMPE     C39      CTL2    -0.180000       12.0110           0
     10245 MEMB     83       PMPE     H9X      HAL2     0.900000E-01   1.00800           0
     10246 MEMB     83       PMPE     H9Y      HAL2     0.900000E-01   1.00800           0
     10247 MEMB     83       PMPE     C310     CTL2    -0.180000       12.0110           0
     10248 MEMB     83       PMPE     H10X     HAL2     0.900000E-01   1.00800           0
     10249 MEMB     83       PMPE     H10Y     HAL2     0.900000E-01   1.00800           0
     10250 MEMB     83       PMPE     C311     CTL2    -0.180000       12.0110           0
     10251 MEMB     83       PMPE     H11X     HAL2     0.900000E-01   1.00800           0
     10252 MEMB     83       PMPE     H11Y     HAL2     0.900000E-01   1.00800           0
     10253 MEMB     83       PMPE     C312     CTL2    -0.180000       12.0110           0
     10254 MEMB     83       PMPE     H12X     HAL2     0.900000E-01   1.00800           0
     10255 MEMB     83       PMPE     H12Y     HAL2     0.900000E-01   1.00800           0
     10256 MEMB     83       PMPE     C313     CTL2    -0.180000       12.0110           0
     10257 MEMB     83       PMPE     H13X     HAL2     0.900000E-01   1.00800           0
     10258 MEMB     83       PMPE     H13Y     HAL2     0.900000E-01   1.00800           0
     10259 MEMB     83       PMPE     C314     CTL2    -0.180000       12.0110           0
     10260 MEMB     83       PMPE     H14X     HAL2     0.900000E-01   1.00800           0
     10261 MEMB     83       PMPE     H14Y     HAL2     0.900000E-01   1.00800           0
     10262 MEMB     83       PMPE     C315     CTL2    -0.180000       12.0110           0
     10263 MEMB     83       PMPE     H15X     HAL2     0.900000E-01   1.00800           0
     10264 MEMB     83       PMPE     H15Y     HAL2     0.900000E-01   1.00800           0
     10265 MEMB     83       PMPE     C316     CTL3    -0.270000       12.0110           0
     10266 MEMB     83       PMPE     H16X     HAL3     0.900000E-01   1.00800           0
     10267 MEMB     83       PMPE     H16Y     HAL3     0.900000E-01   1.00800           0
     10268 MEMB     83       PMPE     H16Z     HAL3     0.900000E-01   1.00800           0
     10269 MEMB     84       OYPE     N        NH3L    -0.300000       14.0070           0
     10270 MEMB     84       OYPE     HN1      HCL      0.330000       1.00800           0
     10271 MEMB     84       OYPE     HN2      HCL      0.330000       1.00800           0
     10272 MEMB     84       OYPE     HN3      HCL      0.330000       1.00800           0
     10273 MEMB     84       OYPE     C12      CTL2     0.130000       12.0110           0
     10274 MEMB     84       OYPE     H12A     HAL2     0.900000E-01   1.00800           0
     10275 MEMB     84       OYPE     H12B     HAL2     0.900000E-01   1.00800           0
     10276 MEMB     84       OYPE     C11      CTL2    -0.800000E-01   12.0110           0
     10277 MEMB     84       OYPE     H11A     HAL2     0.900000E-01   1.00800           0
     10278 MEMB     84       OYPE     H11B     HAL2     0.900000E-01   1.00800           0
     10279 MEMB     84       OYPE     P        PL        1.50000       30.9740           0
     10280 MEMB     84       OYPE     O13      O2L     -0.780000       15.9994           0
     10281 MEMB     84       OYPE     O14      O2L     -0.780000       15.9994           0
     10282 MEMB     84       OYPE     O11      OSLP    -0.570000       15.9994           0
     10283 MEMB     84       OYPE     O12      OSLP    -0.570000       15.9994           0
     10284 MEMB     84       OYPE     C1       CTL2    -0.800000E-01   12.0110           0
     10285 MEMB     84       OYPE     HA       HAL2     0.900000E-01   1.00800           0
     10286 MEMB     84       OYPE     HB       HAL2     0.900000E-01   1.00800           0
     10287 MEMB     84       OYPE     C2       CTL1     0.170000       12.0110           0
     10288 MEMB     84       OYPE     HS       HAL1     0.900000E-01   1.00800           0
     10289 MEMB     84       OYPE     O21      OSL     -0.490000       15.9994           0
     10290 MEMB     84       OYPE     C21      CL       0.900000       12.0110           0
     10291 MEMB     84       OYPE     O22      OBL     -0.630000       15.9994           0
     10292 MEMB     84       OYPE     C22      CTL2    -0.220000       12.0110           0
     10293 MEMB     84       OYPE     H2R      HAL2     0.900000E-01   1.00800           0
     10294 MEMB     84       OYPE     H2S      HAL2     0.900000E-01   1.00800           0
     10295 MEMB     84       OYPE     C3       CTL2     0.800000E-01   12.0110           0
     10296 MEMB     84       OYPE     HX       HAL2     0.900000E-01   1.00800           0
     10297 MEMB     84       OYPE     HY       HAL2     0.900000E-01   1.00800           0
     10298 MEMB     84       OYPE     O31      OSL     -0.490000       15.9994           0
     10299 MEMB     84       OYPE     C31      CL       0.900000       12.0110           0
     10300 MEMB     84       OYPE     O32      OBL     -0.630000       15.9994           0
     10301 MEMB     84       OYPE     C32      CTL2    -0.220000       12.0110           0
     10302 MEMB     84       OYPE     H2X      HAL2     0.900000E-01   1.00800           0
     10303 MEMB     84       OYPE     H2Y      HAL2     0.900000E-01   1.00800           0
     10304 MEMB     84       OYPE     C23      CTL2    -0.180000       12.0110           0
     10305 MEMB     84       OYPE     H3R      HAL2     0.900000E-01   1.00800           0
     10306 MEMB     84       OYPE     H3S      HAL2     0.900000E-01   1.00800           0
     10307 MEMB     84       OYPE     C24      CTL2    -0.180000       12.0110           0
     10308 MEMB     84       OYPE     H4R      HAL2     0.900000E-01   1.00800           0
     10309 MEMB     84       OYPE     H4S      HAL2     0.900000E-01   1.00800           0
     10310 MEMB     84       OYPE     C25      CTL2    -0.180000       12.0110           0
     10311 MEMB     84       OYPE     H5R      HAL2     0.900000E-01   1.00800           0
     10312 MEMB     84       OYPE     H5S      HAL2     0.900000E-01   1.00800           0
     10313 MEMB     84       OYPE     C26      CTL2    -0.180000       12.0110           0
     10314 MEMB     84       OYPE     H6R      HAL2     0.900000E-01   1.00800           0
     10315 MEMB     84       OYPE     H6S      HAL2     0.900000E-01   1.00800           0
     10316 MEMB     84       OYPE     C27      CTL2    -0.180000       12.0110           0
     10317 MEMB     84       OYPE     H7R      HAL2     0.900000E-01   1.00800           0
     10318 MEMB     84       OYPE     H7S      HAL2     0.900000E-01   1.00800           0
     10319 MEMB     84       OYPE     C28      CTL2    -0.180000       12.0110           0
     10320 MEMB     84       OYPE     H8R      HAL2     0.900000E-01   1.00800           0
     10321 MEMB     84       OYPE     H8S      HAL2     0.900000E-01   1.00800           0
     10322 MEMB     84       OYPE     C29      CEL1    -0.150000       12.0110           0
     10323 MEMB     84       OYPE     H9R      HEL1     0.150000       1.00800           0
     10324 MEMB     84       OYPE     C210     CEL1    -0.150000       12.0110           0
     10325 MEMB     84       OYPE     H10R     HEL1     0.150000       1.00800           0
     10326 MEMB     84       OYPE     C211     CTL2    -0.180000       12.0110           0
     10327 MEMB     84       OYPE     H11R     HAL2     0.900000E-01   1.00800           0
     10328 MEMB     84       OYPE     H11S     HAL2     0.900000E-01   1.00800           0
     10329 MEMB     84       OYPE     C212     CTL2    -0.180000       12.0110           0
     10330 MEMB     84       OYPE     H12R     HAL2     0.900000E-01   1.00800           0
     10331 MEMB     84       OYPE     H12S     HAL2     0.900000E-01   1.00800           0
     10332 MEMB     84       OYPE     C213     CTL2    -0.180000       12.0110           0
     10333 MEMB     84       OYPE     H13R     HAL2     0.900000E-01   1.00800           0
     10334 MEMB     84       OYPE     H13S     HAL2     0.900000E-01   1.00800           0
     10335 MEMB     84       OYPE     C214     CTL2    -0.180000       12.0110           0
     10336 MEMB     84       OYPE     H14R     HAL2     0.900000E-01   1.00800           0
     10337 MEMB     84       OYPE     H14S     HAL2     0.900000E-01   1.00800           0
     10338 MEMB     84       OYPE     C215     CTL2    -0.180000       12.0110           0
     10339 MEMB     84       OYPE     H15R     HAL2     0.900000E-01   1.00800           0
     10340 MEMB     84       OYPE     H15S     HAL2     0.900000E-01   1.00800           0
     10341 MEMB     84       OYPE     C216     CTL3    -0.270000       12.0110           0
     10342 MEMB     84       OYPE     H16R     HAL3     0.900000E-01   1.00800           0
     10343 MEMB     84       OYPE     H16S     HAL3     0.900000E-01   1.00800           0
     10344 MEMB     84       OYPE     H16T     HAL3     0.900000E-01   1.00800           0
     10345 MEMB     84       OYPE     C33      CTL2    -0.180000       12.0110           0
     10346 MEMB     84       OYPE     H3X      HAL2     0.900000E-01   1.00800           0
     10347 MEMB     84       OYPE     H3Y      HAL2     0.900000E-01   1.00800           0
     10348 MEMB     84       OYPE     C34      CTL2    -0.180000       12.0110           0
     10349 MEMB     84       OYPE     H4X      HAL2     0.900000E-01   1.00800           0
     10350 MEMB     84       OYPE     H4Y      HAL2     0.900000E-01   1.00800           0
     10351 MEMB     84       OYPE     C35      CTL2    -0.180000       12.0110           0
     10352 MEMB     84       OYPE     H5X      HAL2     0.900000E-01   1.00800           0
     10353 MEMB     84       OYPE     H5Y      HAL2     0.900000E-01   1.00800           0
     10354 MEMB     84       OYPE     C36      CTL2    -0.180000       12.0110           0
     10355 MEMB     84       OYPE     H6X      HAL2     0.900000E-01   1.00800           0
     10356 MEMB     84       OYPE     H6Y      HAL2     0.900000E-01   1.00800           0
     10357 MEMB     84       OYPE     C37      CTL2    -0.180000       12.0110           0
     10358 MEMB     84       OYPE     H7X      HAL2     0.900000E-01   1.00800           0
     10359 MEMB     84       OYPE     H7Y      HAL2     0.900000E-01   1.00800           0
     10360 MEMB     84       OYPE     C38      CTL2    -0.180000       12.0110           0
     10361 MEMB     84       OYPE     H8X      HAL2     0.900000E-01   1.00800           0
     10362 MEMB     84       OYPE     H8Y      HAL2     0.900000E-01   1.00800           0
     10363 MEMB     84       OYPE     C39      CEL1    -0.150000       12.0110           0
     10364 MEMB     84       OYPE     H9X      HEL1     0.150000       1.00800           0
     10365 MEMB     84       OYPE     C310     CEL1    -0.150000       12.0110           0
     10366 MEMB     84       OYPE     H10X     HEL1     0.150000       1.00800           0
     10367 MEMB     84       OYPE     C311     CTL2    -0.180000       12.0110           0
     10368 MEMB     84       OYPE     H11X     HAL2     0.900000E-01   1.00800           0
     10369 MEMB     84       OYPE     H11Y     HAL2     0.900000E-01   1.00800           0
     10370 MEMB     84       OYPE     C312     CTL2    -0.180000       12.0110           0
     10371 MEMB     84       OYPE     H12X     HAL2     0.900000E-01   1.00800           0
     10372 MEMB     84       OYPE     H12Y     HAL2     0.900000E-01   1.00800           0
     10373 MEMB     84       OYPE     C313     CTL2    -0.180000       12.0110           0
     10374 MEMB     84       OYPE     H13X     HAL2     0.900000E-01   1.00800           0
     10375 MEMB     84       OYPE     H13Y     HAL2     0.900000E-01   1.00800           0
     10376 MEMB     84       OYPE     C314     CTL2    -0.180000       12.0110           0
     10377 MEMB     84       OYPE     H14X     HAL2     0.900000E-01   1.00800           0
     10378 MEMB     84       OYPE     H14Y     HAL2     0.900000E-01   1.00800           0
     10379 MEMB     84       OYPE     C315     CTL2    -0.180000       12.0110           0
     10380 MEMB     84       OYPE     H15X     HAL2     0.900000E-01   1.00800           0
     10381 MEMB     84       OYPE     H15Y     HAL2     0.900000E-01   1.00800           0
     10382 MEMB     84       OYPE     C316     CTL2    -0.180000       12.0110           0
     10383 MEMB     84       OYPE     H16X     HAL2     0.900000E-01   1.00800           0
     10384 MEMB     84       OYPE     H16Y     HAL2     0.900000E-01   1.00800           0
     10385 MEMB     84       OYPE     C317     CTL2    -0.180000       12.0110           0
     10386 MEMB     84       OYPE     H17X     HAL2     0.900000E-01   1.00800           0
     10387 MEMB     84       OYPE     H17Y     HAL2     0.900000E-01   1.00800           0
     10388 MEMB     84       OYPE     C318     CTL3    -0.270000       12.0110           0
     10389 MEMB     84       OYPE     H18X     HAL3     0.900000E-01   1.00800           0
     10390 MEMB     84       OYPE     H18Y     HAL3     0.900000E-01   1.00800           0
     10391 MEMB     84       OYPE     H18Z     HAL3     0.900000E-01   1.00800           0
     10392 MEMB     85       PMPE     N        NH3L    -0.300000       14.0070           0
     10393 MEMB     85       PMPE     HN1      HCL      0.330000       1.00800           0
     10394 MEMB     85       PMPE     HN2      HCL      0.330000       1.00800           0
     10395 MEMB     85       PMPE     HN3      HCL      0.330000       1.00800           0
     10396 MEMB     85       PMPE     C12      CTL2     0.130000       12.0110           0
     10397 MEMB     85       PMPE     H12A     HAL2     0.900000E-01   1.00800           0
     10398 MEMB     85       PMPE     H12B     HAL2     0.900000E-01   1.00800           0
     10399 MEMB     85       PMPE     C11      CTL2    -0.800000E-01   12.0110           0
     10400 MEMB     85       PMPE     H11A     HAL2     0.900000E-01   1.00800           0
     10401 MEMB     85       PMPE     H11B     HAL2     0.900000E-01   1.00800           0
     10402 MEMB     85       PMPE     P        PL        1.50000       30.9740           0
     10403 MEMB     85       PMPE     O13      O2L     -0.780000       15.9994           0
     10404 MEMB     85       PMPE     O14      O2L     -0.780000       15.9994           0
     10405 MEMB     85       PMPE     O11      OSLP    -0.570000       15.9994           0
     10406 MEMB     85       PMPE     O12      OSLP    -0.570000       15.9994           0
     10407 MEMB     85       PMPE     C1       CTL2    -0.800000E-01   12.0110           0
     10408 MEMB     85       PMPE     HA       HAL2     0.900000E-01   1.00800           0
     10409 MEMB     85       PMPE     HB       HAL2     0.900000E-01   1.00800           0
     10410 MEMB     85       PMPE     C2       CTL1     0.170000       12.0110           0
     10411 MEMB     85       PMPE     HS       HAL1     0.900000E-01   1.00800           0
     10412 MEMB     85       PMPE     O21      OSL     -0.490000       15.9994           0
     10413 MEMB     85       PMPE     C21      CL       0.900000       12.0110           0
     10414 MEMB     85       PMPE     O22      OBL     -0.630000       15.9994           0
     10415 MEMB     85       PMPE     C22      CTL2    -0.220000       12.0110           0
     10416 MEMB     85       PMPE     H2R      HAL2     0.900000E-01   1.00800           0
     10417 MEMB     85       PMPE     H2S      HAL2     0.900000E-01   1.00800           0
     10418 MEMB     85       PMPE     C3       CTL2     0.800000E-01   12.0110           0
     10419 MEMB     85       PMPE     HX       HAL2     0.900000E-01   1.00800           0
     10420 MEMB     85       PMPE     HY       HAL2     0.900000E-01   1.00800           0
     10421 MEMB     85       PMPE     O31      OSL     -0.490000       15.9994           0
     10422 MEMB     85       PMPE     C31      CL       0.900000       12.0110           0
     10423 MEMB     85       PMPE     O32      OBL     -0.630000       15.9994           0
     10424 MEMB     85       PMPE     C32      CTL2    -0.220000       12.0110           0
     10425 MEMB     85       PMPE     H2X      HAL2     0.900000E-01   1.00800           0
     10426 MEMB     85       PMPE     H2Y      HAL2     0.900000E-01   1.00800           0
     10427 MEMB     85       PMPE     C23      CTL2    -0.180000       12.0110           0
     10428 MEMB     85       PMPE     H3R      HAL2     0.900000E-01   1.00800           0
     10429 MEMB     85       PMPE     H3S      HAL2     0.900000E-01   1.00800           0
     10430 MEMB     85       PMPE     C24      CTL2    -0.180000       12.0110           0
     10431 MEMB     85       PMPE     H4R      HAL2     0.900000E-01   1.00800           0
     10432 MEMB     85       PMPE     H4S      HAL2     0.900000E-01   1.00800           0
     10433 MEMB     85       PMPE     C25      CTL2    -0.180000       12.0110           0
     10434 MEMB     85       PMPE     H5R      HAL2     0.900000E-01   1.00800           0
     10435 MEMB     85       PMPE     H5S      HAL2     0.900000E-01   1.00800           0
     10436 MEMB     85       PMPE     C26      CTL2    -0.180000       12.0110           0
     10437 MEMB     85       PMPE     H6R      HAL2     0.900000E-01   1.00800           0
     10438 MEMB     85       PMPE     H6S      HAL2     0.900000E-01   1.00800           0
     10439 MEMB     85       PMPE     C27      CTL2    -0.180000       12.0110           0
     10440 MEMB     85       PMPE     H7R      HAL2     0.900000E-01   1.00800           0
     10441 MEMB     85       PMPE     H7S      HAL2     0.900000E-01   1.00800           0
     10442 MEMB     85       PMPE     C28      CTL2    -0.180000       12.0110           0
     10443 MEMB     85       PMPE     H8R      HAL2     0.900000E-01   1.00800           0
     10444 MEMB     85       PMPE     H8S      HAL2     0.900000E-01   1.00800           0
     10445 MEMB     85       PMPE     C29      CG3RC1  -0.900000E-01   12.0110           0
     10446 MEMB     85       PMPE     H9R      HGA1     0.900000E-01   1.00800           0
     10447 MEMB     85       PMPE     C217     CG3C31  -0.180000       12.0110           0
     10448 MEMB     85       PMPE     H17R     HGA2     0.900000E-01   1.00800           0
     10449 MEMB     85       PMPE     H17S     HGA2     0.900000E-01   1.00800           0
     10450 MEMB     85       PMPE     C210     CG3RC1  -0.900000E-01   12.0110           0
     10451 MEMB     85       PMPE     H10R     HGA1     0.900000E-01   1.00800           0
     10452 MEMB     85       PMPE     C211     CTL2    -0.180000       12.0110           0
     10453 MEMB     85       PMPE     H11R     HAL2     0.900000E-01   1.00800           0
     10454 MEMB     85       PMPE     H11S     HAL2     0.900000E-01   1.00800           0
     10455 MEMB     85       PMPE     C212     CTL2    -0.180000       12.0110           0
     10456 MEMB     85       PMPE     H12R     HAL2     0.900000E-01   1.00800           0
     10457 MEMB     85       PMPE     H12S     HAL2     0.900000E-01   1.00800           0
     10458 MEMB     85       PMPE     C213     CTL2    -0.180000       12.0110           0
     10459 MEMB     85       PMPE     H13R     HAL2     0.900000E-01   1.00800           0
     10460 MEMB     85       PMPE     H13S     HAL2     0.900000E-01   1.00800           0
     10461 MEMB     85       PMPE     C214     CTL2    -0.180000       12.0110           0
     10462 MEMB     85       PMPE     H14R     HAL2     0.900000E-01   1.00800           0
     10463 MEMB     85       PMPE     H14S     HAL2     0.900000E-01   1.00800           0
     10464 MEMB     85       PMPE     C215     CTL2    -0.180000       12.0110           0
     10465 MEMB     85       PMPE     H15R     HAL2     0.900000E-01   1.00800           0
     10466 MEMB     85       PMPE     H15S     HAL2     0.900000E-01   1.00800           0
     10467 MEMB     85       PMPE     C216     CTL3    -0.270000       12.0110           0
     10468 MEMB     85       PMPE     H16R     HAL3     0.900000E-01   1.00800           0
     10469 MEMB     85       PMPE     H16S     HAL3     0.900000E-01   1.00800           0
     10470 MEMB     85       PMPE     H16T     HAL3     0.900000E-01   1.00800           0
     10471 MEMB     85       PMPE     C33      CTL2    -0.180000       12.0110           0
     10472 MEMB     85       PMPE     H3X      HAL2     0.900000E-01   1.00800           0
     10473 MEMB     85       PMPE     H3Y      HAL2     0.900000E-01   1.00800           0
     10474 MEMB     85       PMPE     C34      CTL2    -0.180000       12.0110           0
     10475 MEMB     85       PMPE     H4X      HAL2     0.900000E-01   1.00800           0
     10476 MEMB     85       PMPE     H4Y      HAL2     0.900000E-01   1.00800           0
     10477 MEMB     85       PMPE     C35      CTL2    -0.180000       12.0110           0
     10478 MEMB     85       PMPE     H5X      HAL2     0.900000E-01   1.00800           0
     10479 MEMB     85       PMPE     H5Y      HAL2     0.900000E-01   1.00800           0
     10480 MEMB     85       PMPE     C36      CTL2    -0.180000       12.0110           0
     10481 MEMB     85       PMPE     H6X      HAL2     0.900000E-01   1.00800           0
     10482 MEMB     85       PMPE     H6Y      HAL2     0.900000E-01   1.00800           0
     10483 MEMB     85       PMPE     C37      CTL2    -0.180000       12.0110           0
     10484 MEMB     85       PMPE     H7X      HAL2     0.900000E-01   1.00800           0
     10485 MEMB     85       PMPE     H7Y      HAL2     0.900000E-01   1.00800           0
     10486 MEMB     85       PMPE     C38      CTL2    -0.180000       12.0110           0
     10487 MEMB     85       PMPE     H8X      HAL2     0.900000E-01   1.00800           0
     10488 MEMB     85       PMPE     H8Y      HAL2     0.900000E-01   1.00800           0
     10489 MEMB     85       PMPE     C39      CTL2    -0.180000       12.0110           0
     10490 MEMB     85       PMPE     H9X      HAL2     0.900000E-01   1.00800           0
     10491 MEMB     85       PMPE     H9Y      HAL2     0.900000E-01   1.00800           0
     10492 MEMB     85       PMPE     C310     CTL2    -0.180000       12.0110           0
     10493 MEMB     85       PMPE     H10X     HAL2     0.900000E-01   1.00800           0
     10494 MEMB     85       PMPE     H10Y     HAL2     0.900000E-01   1.00800           0
     10495 MEMB     85       PMPE     C311     CTL2    -0.180000       12.0110           0
     10496 MEMB     85       PMPE     H11X     HAL2     0.900000E-01   1.00800           0
     10497 MEMB     85       PMPE     H11Y     HAL2     0.900000E-01   1.00800           0
     10498 MEMB     85       PMPE     C312     CTL2    -0.180000       12.0110           0
     10499 MEMB     85       PMPE     H12X     HAL2     0.900000E-01   1.00800           0
     10500 MEMB     85       PMPE     H12Y     HAL2     0.900000E-01   1.00800           0
     10501 MEMB     85       PMPE     C313     CTL2    -0.180000       12.0110           0
     10502 MEMB     85       PMPE     H13X     HAL2     0.900000E-01   1.00800           0
     10503 MEMB     85       PMPE     H13Y     HAL2     0.900000E-01   1.00800           0
     10504 MEMB     85       PMPE     C314     CTL2    -0.180000       12.0110           0
     10505 MEMB     85       PMPE     H14X     HAL2     0.900000E-01   1.00800           0
     10506 MEMB     85       PMPE     H14Y     HAL2     0.900000E-01   1.00800           0
     10507 MEMB     85       PMPE     C315     CTL2    -0.180000       12.0110           0
     10508 MEMB     85       PMPE     H15X     HAL2     0.900000E-01   1.00800           0
     10509 MEMB     85       PMPE     H15Y     HAL2     0.900000E-01   1.00800           0
     10510 MEMB     85       PMPE     C316     CTL3    -0.270000       12.0110           0
     10511 MEMB     85       PMPE     H16X     HAL3     0.900000E-01   1.00800           0
     10512 MEMB     85       PMPE     H16Y     HAL3     0.900000E-01   1.00800           0
     10513 MEMB     85       PMPE     H16Z     HAL3     0.900000E-01   1.00800           0
     10514 MEMB     86       QMPE     N        NH3L    -0.300000       14.0070           0
     10515 MEMB     86       QMPE     HN1      HCL      0.330000       1.00800           0
     10516 MEMB     86       QMPE     HN2      HCL      0.330000       1.00800           0
     10517 MEMB     86       QMPE     HN3      HCL      0.330000       1.00800           0
     10518 MEMB     86       QMPE     C12      CTL2     0.130000       12.0110           0
     10519 MEMB     86       QMPE     H12A     HAL2     0.900000E-01   1.00800           0
     10520 MEMB     86       QMPE     H12B     HAL2     0.900000E-01   1.00800           0
     10521 MEMB     86       QMPE     C11      CTL2    -0.800000E-01   12.0110           0
     10522 MEMB     86       QMPE     H11A     HAL2     0.900000E-01   1.00800           0
     10523 MEMB     86       QMPE     H11B     HAL2     0.900000E-01   1.00800           0
     10524 MEMB     86       QMPE     P        PL        1.50000       30.9740           0
     10525 MEMB     86       QMPE     O13      O2L     -0.780000       15.9994           0
     10526 MEMB     86       QMPE     O14      O2L     -0.780000       15.9994           0
     10527 MEMB     86       QMPE     O11      OSLP    -0.570000       15.9994           0
     10528 MEMB     86       QMPE     O12      OSLP    -0.570000       15.9994           0
     10529 MEMB     86       QMPE     C1       CTL2    -0.800000E-01   12.0110           0
     10530 MEMB     86       QMPE     HA       HAL2     0.900000E-01   1.00800           0
     10531 MEMB     86       QMPE     HB       HAL2     0.900000E-01   1.00800           0
     10532 MEMB     86       QMPE     C2       CTL1     0.170000       12.0110           0
     10533 MEMB     86       QMPE     HS       HAL1     0.900000E-01   1.00800           0
     10534 MEMB     86       QMPE     O21      OSL     -0.490000       15.9994           0
     10535 MEMB     86       QMPE     C21      CL       0.900000       12.0110           0
     10536 MEMB     86       QMPE     O22      OBL     -0.630000       15.9994           0
     10537 MEMB     86       QMPE     C22      CTL2    -0.220000       12.0110           0
     10538 MEMB     86       QMPE     H2R      HAL2     0.900000E-01   1.00800           0
     10539 MEMB     86       QMPE     H2S      HAL2     0.900000E-01   1.00800           0
     10540 MEMB     86       QMPE     C3       CTL2     0.800000E-01   12.0110           0
     10541 MEMB     86       QMPE     HX       HAL2     0.900000E-01   1.00800           0
     10542 MEMB     86       QMPE     HY       HAL2     0.900000E-01   1.00800           0
     10543 MEMB     86       QMPE     O31      OSL     -0.490000       15.9994           0
     10544 MEMB     86       QMPE     C31      CL       0.900000       12.0110           0
     10545 MEMB     86       QMPE     O32      OBL     -0.630000       15.9994           0
     10546 MEMB     86       QMPE     C32      CTL2    -0.220000       12.0110           0
     10547 MEMB     86       QMPE     H2X      HAL2     0.900000E-01   1.00800           0
     10548 MEMB     86       QMPE     H2Y      HAL2     0.900000E-01   1.00800           0
     10549 MEMB     86       QMPE     C23      CTL2    -0.180000       12.0110           0
     10550 MEMB     86       QMPE     H3R      HAL2     0.900000E-01   1.00800           0
     10551 MEMB     86       QMPE     H3S      HAL2     0.900000E-01   1.00800           0
     10552 MEMB     86       QMPE     C24      CTL2    -0.180000       12.0110           0
     10553 MEMB     86       QMPE     H4R      HAL2     0.900000E-01   1.00800           0
     10554 MEMB     86       QMPE     H4S      HAL2     0.900000E-01   1.00800           0
     10555 MEMB     86       QMPE     C25      CTL2    -0.180000       12.0110           0
     10556 MEMB     86       QMPE     H5R      HAL2     0.900000E-01   1.00800           0
     10557 MEMB     86       QMPE     H5S      HAL2     0.900000E-01   1.00800           0
     10558 MEMB     86       QMPE     C26      CTL2    -0.180000       12.0110           0
     10559 MEMB     86       QMPE     H6R      HAL2     0.900000E-01   1.00800           0
     10560 MEMB     86       QMPE     H6S      HAL2     0.900000E-01   1.00800           0
     10561 MEMB     86       QMPE     C27      CTL2    -0.180000       12.0110           0
     10562 MEMB     86       QMPE     H7R      HAL2     0.900000E-01   1.00800           0
     10563 MEMB     86       QMPE     H7S      HAL2     0.900000E-01   1.00800           0
     10564 MEMB     86       QMPE     C28      CTL2    -0.180000       12.0110           0
     10565 MEMB     86       QMPE     H8R      HAL2     0.900000E-01   1.00800           0
     10566 MEMB     86       QMPE     H8S      HAL2     0.900000E-01   1.00800           0
     10567 MEMB     86       QMPE     C29      CG3RC1  -0.900000E-01   12.0110           0
     10568 MEMB     86       QMPE     H9R      HGA1     0.900000E-01   1.00800           0
     10569 MEMB     86       QMPE     C217     CG3C31  -0.180000       12.0110           0
     10570 MEMB     86       QMPE     H17R     HGA2     0.900000E-01   1.00800           0
     10571 MEMB     86       QMPE     H17S     HGA2     0.900000E-01   1.00800           0
     10572 MEMB     86       QMPE     C210     CG3RC1  -0.900000E-01   12.0110           0
     10573 MEMB     86       QMPE     H10R     HGA1     0.900000E-01   1.00800           0
     10574 MEMB     86       QMPE     C211     CTL2    -0.180000       12.0110           0
     10575 MEMB     86       QMPE     H11R     HAL2     0.900000E-01   1.00800           0
     10576 MEMB     86       QMPE     H11S     HAL2     0.900000E-01   1.00800           0
     10577 MEMB     86       QMPE     C212     CTL2    -0.180000       12.0110           0
     10578 MEMB     86       QMPE     H12R     HAL2     0.900000E-01   1.00800           0
     10579 MEMB     86       QMPE     H12S     HAL2     0.900000E-01   1.00800           0
     10580 MEMB     86       QMPE     C213     CTL2    -0.180000       12.0110           0
     10581 MEMB     86       QMPE     H13R     HAL2     0.900000E-01   1.00800           0
     10582 MEMB     86       QMPE     H13S     HAL2     0.900000E-01   1.00800           0
     10583 MEMB     86       QMPE     C214     CTL2    -0.180000       12.0110           0
     10584 MEMB     86       QMPE     H14R     HAL2     0.900000E-01   1.00800           0
     10585 MEMB     86       QMPE     H14S     HAL2     0.900000E-01   1.00800           0
     10586 MEMB     86       QMPE     C215     CTL2    -0.180000       12.0110           0
     10587 MEMB     86       QMPE     H15R     HAL2     0.900000E-01   1.00800           0
     10588 MEMB     86       QMPE     H15S     HAL2     0.900000E-01   1.00800           0
     10589 MEMB     86       QMPE     C216     CTL3    -0.270000       12.0110           0
     10590 MEMB     86       QMPE     H16R     HAL3     0.900000E-01   1.00800           0
     10591 MEMB     86       QMPE     H16S     HAL3     0.900000E-01   1.00800           0
     10592 MEMB     86       QMPE     H16T     HAL3     0.900000E-01   1.00800           0
     10593 MEMB     86       QMPE     C33      CTL2    -0.180000       12.0110           0
     10594 MEMB     86       QMPE     H3X      HAL2     0.900000E-01   1.00800           0
     10595 MEMB     86       QMPE     H3Y      HAL2     0.900000E-01   1.00800           0
     10596 MEMB     86       QMPE     C34      CTL2    -0.180000       12.0110           0
     10597 MEMB     86       QMPE     H4X      HAL2     0.900000E-01   1.00800           0
     10598 MEMB     86       QMPE     H4Y      HAL2     0.900000E-01   1.00800           0
     10599 MEMB     86       QMPE     C35      CTL2    -0.180000       12.0110           0
     10600 MEMB     86       QMPE     H5X      HAL2     0.900000E-01   1.00800           0
     10601 MEMB     86       QMPE     H5Y      HAL2     0.900000E-01   1.00800           0
     10602 MEMB     86       QMPE     C36      CTL2    -0.180000       12.0110           0
     10603 MEMB     86       QMPE     H6X      HAL2     0.900000E-01   1.00800           0
     10604 MEMB     86       QMPE     H6Y      HAL2     0.900000E-01   1.00800           0
     10605 MEMB     86       QMPE     C37      CTL2    -0.180000       12.0110           0
     10606 MEMB     86       QMPE     H7X      HAL2     0.900000E-01   1.00800           0
     10607 MEMB     86       QMPE     H7Y      HAL2     0.900000E-01   1.00800           0
     10608 MEMB     86       QMPE     C38      CTL2    -0.180000       12.0110           0
     10609 MEMB     86       QMPE     H8X      HAL2     0.900000E-01   1.00800           0
     10610 MEMB     86       QMPE     H8Y      HAL2     0.900000E-01   1.00800           0
     10611 MEMB     86       QMPE     C39      CTL2    -0.180000       12.0110           0
     10612 MEMB     86       QMPE     H9X      HAL2     0.900000E-01   1.00800           0
     10613 MEMB     86       QMPE     H9Y      HAL2     0.900000E-01   1.00800           0
     10614 MEMB     86       QMPE     C310     CTL2    -0.180000       12.0110           0
     10615 MEMB     86       QMPE     H10X     HAL2     0.900000E-01   1.00800           0
     10616 MEMB     86       QMPE     H10Y     HAL2     0.900000E-01   1.00800           0
     10617 MEMB     86       QMPE     C311     CTL2    -0.180000       12.0110           0
     10618 MEMB     86       QMPE     H11X     HAL2     0.900000E-01   1.00800           0
     10619 MEMB     86       QMPE     H11Y     HAL2     0.900000E-01   1.00800           0
     10620 MEMB     86       QMPE     C312     CTL2    -0.180000       12.0110           0
     10621 MEMB     86       QMPE     H12X     HAL2     0.900000E-01   1.00800           0
     10622 MEMB     86       QMPE     H12Y     HAL2     0.900000E-01   1.00800           0
     10623 MEMB     86       QMPE     C313     CTL2    -0.180000       12.0110           0
     10624 MEMB     86       QMPE     H13X     HAL2     0.900000E-01   1.00800           0
     10625 MEMB     86       QMPE     H13Y     HAL2     0.900000E-01   1.00800           0
     10626 MEMB     86       QMPE     C314     CTL2    -0.180000       12.0110           0
     10627 MEMB     86       QMPE     H14X     HAL2     0.900000E-01   1.00800           0
     10628 MEMB     86       QMPE     H14Y     HAL2     0.900000E-01   1.00800           0
     10629 MEMB     86       QMPE     C315     CTL3    -0.270000       12.0110           0
     10630 MEMB     86       QMPE     H15X     HAL3     0.900000E-01   1.00800           0
     10631 MEMB     86       QMPE     H15Y     HAL3     0.900000E-01   1.00800           0
     10632 MEMB     86       QMPE     H15Z     HAL3     0.900000E-01   1.00800           0
     10633 MEMB     87       PYPG     C13      CTL2     0.500000E-01   12.0110           0
     10634 MEMB     87       PYPG     H13A     HAL2     0.900000E-01   1.00800           0
     10635 MEMB     87       PYPG     H13B     HAL2     0.900000E-01   1.00800           0
     10636 MEMB     87       PYPG     OC3      OHL     -0.660000       15.9994           0
     10637 MEMB     87       PYPG     HO3      HOL      0.430000       1.00800           0
     10638 MEMB     87       PYPG     C12      CTL1     0.140000       12.0110           0
     10639 MEMB     87       PYPG     H12A     HAL1     0.900000E-01   1.00800           0
     10640 MEMB     87       PYPG     OC2      OHL     -0.660000       15.9994           0
     10641 MEMB     87       PYPG     HO2      HOL      0.430000       1.00800           0
     10642 MEMB     87       PYPG     C11      CTL2    -0.800000E-01   12.0110           0
     10643 MEMB     87       PYPG     H11A     HAL2     0.900000E-01   1.00800           0
     10644 MEMB     87       PYPG     H11B     HAL2     0.900000E-01   1.00800           0
     10645 MEMB     87       PYPG     P        PL        1.50000       30.9740           0
     10646 MEMB     87       PYPG     O13      O2L     -0.780000       15.9994           0
     10647 MEMB     87       PYPG     O14      O2L     -0.780000       15.9994           0
     10648 MEMB     87       PYPG     O11      OSLP    -0.570000       15.9994           0
     10649 MEMB     87       PYPG     O12      OSLP    -0.570000       15.9994           0
     10650 MEMB     87       PYPG     C1       CTL2    -0.800000E-01   12.0110           0
     10651 MEMB     87       PYPG     HA       HAL2     0.900000E-01   1.00800           0
     10652 MEMB     87       PYPG     HB       HAL2     0.900000E-01   1.00800           0
     10653 MEMB     87       PYPG     C2       CTL1     0.170000       12.0110           0
     10654 MEMB     87       PYPG     HS       HAL1     0.900000E-01   1.00800           0
     10655 MEMB     87       PYPG     O21      OSL     -0.490000       15.9994           0
     10656 MEMB     87       PYPG     C21      CL       0.900000       12.0110           0
     10657 MEMB     87       PYPG     O22      OBL     -0.630000       15.9994           0
     10658 MEMB     87       PYPG     C22      CTL2    -0.220000       12.0110           0
     10659 MEMB     87       PYPG     H2R      HAL2     0.900000E-01   1.00800           0
     10660 MEMB     87       PYPG     H2S      HAL2     0.900000E-01   1.00800           0
     10661 MEMB     87       PYPG     C3       CTL2     0.800000E-01   12.0110           0
     10662 MEMB     87       PYPG     HX       HAL2     0.900000E-01   1.00800           0
     10663 MEMB     87       PYPG     HY       HAL2     0.900000E-01   1.00800           0
     10664 MEMB     87       PYPG     O31      OSL     -0.490000       15.9994           0
     10665 MEMB     87       PYPG     C31      CL       0.900000       12.0110           0
     10666 MEMB     87       PYPG     O32      OBL     -0.630000       15.9994           0
     10667 MEMB     87       PYPG     C32      CTL2    -0.220000       12.0110           0
     10668 MEMB     87       PYPG     H2X      HAL2     0.900000E-01   1.00800           0
     10669 MEMB     87       PYPG     H2Y      HAL2     0.900000E-01   1.00800           0
     10670 MEMB     87       PYPG     C23      CTL2    -0.180000       12.0110           0
     10671 MEMB     87       PYPG     H3R      HAL2     0.900000E-01   1.00800           0
     10672 MEMB     87       PYPG     H3S      HAL2     0.900000E-01   1.00800           0
     10673 MEMB     87       PYPG     C24      CTL2    -0.180000       12.0110           0
     10674 MEMB     87       PYPG     H4R      HAL2     0.900000E-01   1.00800           0
     10675 MEMB     87       PYPG     H4S      HAL2     0.900000E-01   1.00800           0
     10676 MEMB     87       PYPG     C25      CTL2    -0.180000       12.0110           0
     10677 MEMB     87       PYPG     H5R      HAL2     0.900000E-01   1.00800           0
     10678 MEMB     87       PYPG     H5S      HAL2     0.900000E-01   1.00800           0
     10679 MEMB     87       PYPG     C26      CTL2    -0.180000       12.0110           0
     10680 MEMB     87       PYPG     H6R      HAL2     0.900000E-01   1.00800           0
     10681 MEMB     87       PYPG     H6S      HAL2     0.900000E-01   1.00800           0
     10682 MEMB     87       PYPG     C27      CTL2    -0.180000       12.0110           0
     10683 MEMB     87       PYPG     H7R      HAL2     0.900000E-01   1.00800           0
     10684 MEMB     87       PYPG     H7S      HAL2     0.900000E-01   1.00800           0
     10685 MEMB     87       PYPG     C28      CTL2    -0.180000       12.0110           0
     10686 MEMB     87       PYPG     H8R      HAL2     0.900000E-01   1.00800           0
     10687 MEMB     87       PYPG     H8S      HAL2     0.900000E-01   1.00800           0
     10688 MEMB     87       PYPG     C29      CEL1    -0.150000       12.0110           0
     10689 MEMB     87       PYPG     H9R      HEL1     0.150000       1.00800           0
     10690 MEMB     87       PYPG     C210     CEL1    -0.150000       12.0110           0
     10691 MEMB     87       PYPG     H10R     HEL1     0.150000       1.00800           0
     10692 MEMB     87       PYPG     C211     CTL2    -0.180000       12.0110           0
     10693 MEMB     87       PYPG     H11R     HAL2     0.900000E-01   1.00800           0
     10694 MEMB     87       PYPG     H11S     HAL2     0.900000E-01   1.00800           0
     10695 MEMB     87       PYPG     C212     CTL2    -0.180000       12.0110           0
     10696 MEMB     87       PYPG     H12R     HAL2     0.900000E-01   1.00800           0
     10697 MEMB     87       PYPG     H12S     HAL2     0.900000E-01   1.00800           0
     10698 MEMB     87       PYPG     C213     CTL2    -0.180000       12.0110           0
     10699 MEMB     87       PYPG     H13R     HAL2     0.900000E-01   1.00800           0
     10700 MEMB     87       PYPG     H13S     HAL2     0.900000E-01   1.00800           0
     10701 MEMB     87       PYPG     C214     CTL2    -0.180000       12.0110           0
     10702 MEMB     87       PYPG     H14R     HAL2     0.900000E-01   1.00800           0
     10703 MEMB     87       PYPG     H14S     HAL2     0.900000E-01   1.00800           0
     10704 MEMB     87       PYPG     C215     CTL2    -0.180000       12.0110           0
     10705 MEMB     87       PYPG     H15R     HAL2     0.900000E-01   1.00800           0
     10706 MEMB     87       PYPG     H15S     HAL2     0.900000E-01   1.00800           0
     10707 MEMB     87       PYPG     C216     CTL3    -0.270000       12.0110           0
     10708 MEMB     87       PYPG     H16R     HAL3     0.900000E-01   1.00800           0
     10709 MEMB     87       PYPG     H16S     HAL3     0.900000E-01   1.00800           0
     10710 MEMB     87       PYPG     H16T     HAL3     0.900000E-01   1.00800           0
     10711 MEMB     87       PYPG     C33      CTL2    -0.180000       12.0110           0
     10712 MEMB     87       PYPG     H3X      HAL2     0.900000E-01   1.00800           0
     10713 MEMB     87       PYPG     H3Y      HAL2     0.900000E-01   1.00800           0
     10714 MEMB     87       PYPG     C34      CTL2    -0.180000       12.0110           0
     10715 MEMB     87       PYPG     H4X      HAL2     0.900000E-01   1.00800           0
     10716 MEMB     87       PYPG     H4Y      HAL2     0.900000E-01   1.00800           0
     10717 MEMB     87       PYPG     C35      CTL2    -0.180000       12.0110           0
     10718 MEMB     87       PYPG     H5X      HAL2     0.900000E-01   1.00800           0
     10719 MEMB     87       PYPG     H5Y      HAL2     0.900000E-01   1.00800           0
     10720 MEMB     87       PYPG     C36      CTL2    -0.180000       12.0110           0
     10721 MEMB     87       PYPG     H6X      HAL2     0.900000E-01   1.00800           0
     10722 MEMB     87       PYPG     H6Y      HAL2     0.900000E-01   1.00800           0
     10723 MEMB     87       PYPG     C37      CTL2    -0.180000       12.0110           0
     10724 MEMB     87       PYPG     H7X      HAL2     0.900000E-01   1.00800           0
     10725 MEMB     87       PYPG     H7Y      HAL2     0.900000E-01   1.00800           0
     10726 MEMB     87       PYPG     C38      CTL2    -0.180000       12.0110           0
     10727 MEMB     87       PYPG     H8X      HAL2     0.900000E-01   1.00800           0
     10728 MEMB     87       PYPG     H8Y      HAL2     0.900000E-01   1.00800           0
     10729 MEMB     87       PYPG     C39      CTL2    -0.180000       12.0110           0
     10730 MEMB     87       PYPG     H9X      HAL2     0.900000E-01   1.00800           0
     10731 MEMB     87       PYPG     H9Y      HAL2     0.900000E-01   1.00800           0
     10732 MEMB     87       PYPG     C310     CTL2    -0.180000       12.0110           0
     10733 MEMB     87       PYPG     H10X     HAL2     0.900000E-01   1.00800           0
     10734 MEMB     87       PYPG     H10Y     HAL2     0.900000E-01   1.00800           0
     10735 MEMB     87       PYPG     C311     CTL2    -0.180000       12.0110           0
     10736 MEMB     87       PYPG     H11X     HAL2     0.900000E-01   1.00800           0
     10737 MEMB     87       PYPG     H11Y     HAL2     0.900000E-01   1.00800           0
     10738 MEMB     87       PYPG     C312     CTL2    -0.180000       12.0110           0
     10739 MEMB     87       PYPG     H12X     HAL2     0.900000E-01   1.00800           0
     10740 MEMB     87       PYPG     H12Y     HAL2     0.900000E-01   1.00800           0
     10741 MEMB     87       PYPG     C313     CTL2    -0.180000       12.0110           0
     10742 MEMB     87       PYPG     H13X     HAL2     0.900000E-01   1.00800           0
     10743 MEMB     87       PYPG     H13Y     HAL2     0.900000E-01   1.00800           0
     10744 MEMB     87       PYPG     C314     CTL2    -0.180000       12.0110           0
     10745 MEMB     87       PYPG     H14X     HAL2     0.900000E-01   1.00800           0
     10746 MEMB     87       PYPG     H14Y     HAL2     0.900000E-01   1.00800           0
     10747 MEMB     87       PYPG     C315     CTL2    -0.180000       12.0110           0
     10748 MEMB     87       PYPG     H15X     HAL2     0.900000E-01   1.00800           0
     10749 MEMB     87       PYPG     H15Y     HAL2     0.900000E-01   1.00800           0
     10750 MEMB     87       PYPG     C316     CTL3    -0.270000       12.0110           0
     10751 MEMB     87       PYPG     H16X     HAL3     0.900000E-01   1.00800           0
     10752 MEMB     87       PYPG     H16Y     HAL3     0.900000E-01   1.00800           0
     10753 MEMB     87       PYPG     H16Z     HAL3     0.900000E-01   1.00800           0
     10754 MEMB     88       PVCL2    C3       CTL2    -0.800000E-01   12.0110           0
     10755 MEMB     88       PVCL2    HG31     HAL2     0.900000E-01   1.00800           0
     10756 MEMB     88       PVCL2    HG32     HAL2     0.900000E-01   1.00800           0
     10757 MEMB     88       PVCL2    P3       PL        1.50000       30.9740           0
     10758 MEMB     88       PVCL2    OP33     O2L     -0.780000       15.9994           0
     10759 MEMB     88       PVCL2    OP34     O2L     -0.780000       15.9994           0
     10760 MEMB     88       PVCL2    OP31     OSLP    -0.570000       15.9994           0
     10761 MEMB     88       PVCL2    OP32     OSLP    -0.570000       15.9994           0
     10762 MEMB     88       PVCL2    C31      CTL2    -0.800000E-01   12.0110           0
     10763 MEMB     88       PVCL2    H31J     HAL2     0.900000E-01   1.00800           0
     10764 MEMB     88       PVCL2    H31K     HAL2     0.900000E-01   1.00800           0
     10765 MEMB     88       PVCL2    C2       CTL1     0.140000       12.0110           0
     10766 MEMB     88       PVCL2    HG22     HAL1     0.900000E-01   1.00800           0
     10767 MEMB     88       PVCL2    OG12     OHL     -0.650000       15.9994           0
     10768 MEMB     88       PVCL2    HO12     HOL      0.420000       1.00800           0
     10769 MEMB     88       PVCL2    C1       CTL2    -0.800000E-01   12.0110           0
     10770 MEMB     88       PVCL2    HG11     HAL2     0.900000E-01   1.00800           0
     10771 MEMB     88       PVCL2    HG12     HAL2     0.900000E-01   1.00800           0
     10772 MEMB     88       PVCL2    P1       PL        1.50000       30.9740           0
     10773 MEMB     88       PVCL2    OP13     O2L     -0.780000       15.9994           0
     10774 MEMB     88       PVCL2    OP14     O2L     -0.780000       15.9994           0
     10775 MEMB     88       PVCL2    OP11     OSLP    -0.570000       15.9994           0
     10776 MEMB     88       PVCL2    OP12     OSLP    -0.570000       15.9994           0
     10777 MEMB     88       PVCL2    C11      CTL2    -0.800000E-01   12.0110           0
     10778 MEMB     88       PVCL2    H11J     HAL2     0.900000E-01   1.00800           0
     10779 MEMB     88       PVCL2    H11K     HAL2     0.900000E-01   1.00800           0
     10780 MEMB     88       PVCL2    C12      CTL1     0.170000       12.0110           0
     10781 MEMB     88       PVCL2    H12J     HAL1     0.900000E-01   1.00800           0
     10782 MEMB     88       PVCL2    O12      OSL     -0.490000       15.9994           0
     10783 MEMB     88       PVCL2    CA1      CL       0.900000       12.0110           0
     10784 MEMB     88       PVCL2    OA1      OBL     -0.630000       15.9994           0
     10785 MEMB     88       PVCL2    CA2      CTL2    -0.220000       12.0110           0
     10786 MEMB     88       PVCL2    H2A      HAL2     0.900000E-01   1.00800           0
     10787 MEMB     88       PVCL2    H2B      HAL2     0.900000E-01   1.00800           0
     10788 MEMB     88       PVCL2    C13      CTL2     0.800000E-01   12.0110           0
     10789 MEMB     88       PVCL2    H13J     HAL2     0.900000E-01   1.00800           0
     10790 MEMB     88       PVCL2    H13K     HAL2     0.900000E-01   1.00800           0
     10791 MEMB     88       PVCL2    O13      OSL     -0.490000       15.9994           0
     10792 MEMB     88       PVCL2    CB1      CL       0.900000       12.0110           0
     10793 MEMB     88       PVCL2    OB1      OBL     -0.630000       15.9994           0
     10794 MEMB     88       PVCL2    CB2      CTL2    -0.220000       12.0110           0
     10795 MEMB     88       PVCL2    H2D      HAL2     0.900000E-01   1.00800           0
     10796 MEMB     88       PVCL2    H2E      HAL2     0.900000E-01   1.00800           0
     10797 MEMB     88       PVCL2    C32      CTL1     0.170000       12.0110           0
     10798 MEMB     88       PVCL2    H32J     HAL1     0.900000E-01   1.00800           0
     10799 MEMB     88       PVCL2    O32      OSL     -0.490000       15.9994           0
     10800 MEMB     88       PVCL2    CC1      CL       0.900000       12.0110           0
     10801 MEMB     88       PVCL2    OC1      OBL     -0.630000       15.9994           0
     10802 MEMB     88       PVCL2    CC2      CTL2    -0.220000       12.0110           0
     10803 MEMB     88       PVCL2    H2R      HAL2     0.900000E-01   1.00800           0
     10804 MEMB     88       PVCL2    H2S      HAL2     0.900000E-01   1.00800           0
     10805 MEMB     88       PVCL2    C33      CTL2     0.800000E-01   12.0110           0
     10806 MEMB     88       PVCL2    H33J     HAL2     0.900000E-01   1.00800           0
     10807 MEMB     88       PVCL2    H33K     HAL2     0.900000E-01   1.00800           0
     10808 MEMB     88       PVCL2    O33      OSL     -0.490000       15.9994           0
     10809 MEMB     88       PVCL2    CD1      CL       0.900000       12.0110           0
     10810 MEMB     88       PVCL2    OD1      OBL     -0.630000       15.9994           0
     10811 MEMB     88       PVCL2    CD2      CTL2    -0.220000       12.0110           0
     10812 MEMB     88       PVCL2    H2X      HAL2     0.900000E-01   1.00800           0
     10813 MEMB     88       PVCL2    H2Y      HAL2     0.900000E-01   1.00800           0
     10814 MEMB     88       PVCL2    CA3      CTL2    -0.180000       12.0110           0
     10815 MEMB     88       PVCL2    H3A      HAL2     0.900000E-01   1.00800           0
     10816 MEMB     88       PVCL2    H3B      HAL2     0.900000E-01   1.00800           0
     10817 MEMB     88       PVCL2    CA4      CTL2    -0.180000       12.0110           0
     10818 MEMB     88       PVCL2    H4A      HAL2     0.900000E-01   1.00800           0
     10819 MEMB     88       PVCL2    H4B      HAL2     0.900000E-01   1.00800           0
     10820 MEMB     88       PVCL2    CA5      CTL2    -0.180000       12.0110           0
     10821 MEMB     88       PVCL2    H5A      HAL2     0.900000E-01   1.00800           0
     10822 MEMB     88       PVCL2    H5B      HAL2     0.900000E-01   1.00800           0
     10823 MEMB     88       PVCL2    CA6      CTL2    -0.180000       12.0110           0
     10824 MEMB     88       PVCL2    H6A      HAL2     0.900000E-01   1.00800           0
     10825 MEMB     88       PVCL2    H6B      HAL2     0.900000E-01   1.00800           0
     10826 MEMB     88       PVCL2    CA7      CTL2    -0.180000       12.0110           0
     10827 MEMB     88       PVCL2    H7A      HAL2     0.900000E-01   1.00800           0
     10828 MEMB     88       PVCL2    H7B      HAL2     0.900000E-01   1.00800           0
     10829 MEMB     88       PVCL2    CA8      CTL2    -0.180000       12.0110           0
     10830 MEMB     88       PVCL2    H8A      HAL2     0.900000E-01   1.00800           0
     10831 MEMB     88       PVCL2    H8B      HAL2     0.900000E-01   1.00800           0
     10832 MEMB     88       PVCL2    CA9      CTL2    -0.180000       12.0110           0
     10833 MEMB     88       PVCL2    H9A      HAL2     0.900000E-01   1.00800           0
     10834 MEMB     88       PVCL2    H9B      HAL2     0.900000E-01   1.00800           0
     10835 MEMB     88       PVCL2    CA10     CTL2    -0.180000       12.0110           0
     10836 MEMB     88       PVCL2    H10A     HAL2     0.900000E-01   1.00800           0
     10837 MEMB     88       PVCL2    H10B     HAL2     0.900000E-01   1.00800           0
     10838 MEMB     88       PVCL2    CA11     CEL1    -0.150000       12.0110           0
     10839 MEMB     88       PVCL2    H11A     HEL1     0.150000       1.00800           0
     10840 MEMB     88       PVCL2    CA12     CEL1    -0.150000       12.0110           0
     10841 MEMB     88       PVCL2    H12A     HEL1     0.150000       1.00800           0
     10842 MEMB     88       PVCL2    CA13     CTL2    -0.180000       12.0110           0
     10843 MEMB     88       PVCL2    H13A     HAL2     0.900000E-01   1.00800           0
     10844 MEMB     88       PVCL2    H13B     HAL2     0.900000E-01   1.00800           0
     10845 MEMB     88       PVCL2    CA14     CTL2    -0.180000       12.0110           0
     10846 MEMB     88       PVCL2    H14A     HAL2     0.900000E-01   1.00800           0
     10847 MEMB     88       PVCL2    H14B     HAL2     0.900000E-01   1.00800           0
     10848 MEMB     88       PVCL2    CA15     CTL2    -0.180000       12.0110           0
     10849 MEMB     88       PVCL2    H15A     HAL2     0.900000E-01   1.00800           0
     10850 MEMB     88       PVCL2    H15B     HAL2     0.900000E-01   1.00800           0
     10851 MEMB     88       PVCL2    CA16     CTL2    -0.180000       12.0110           0
     10852 MEMB     88       PVCL2    H16A     HAL2     0.900000E-01   1.00800           0
     10853 MEMB     88       PVCL2    H16B     HAL2     0.900000E-01   1.00800           0
     10854 MEMB     88       PVCL2    CA17     CTL2    -0.180000       12.0110           0
     10855 MEMB     88       PVCL2    H17A     HAL2     0.900000E-01   1.00800           0
     10856 MEMB     88       PVCL2    H17B     HAL2     0.900000E-01   1.00800           0
     10857 MEMB     88       PVCL2    CA18     CTL3    -0.270000       12.0110           0
     10858 MEMB     88       PVCL2    H18A     HAL3     0.900000E-01   1.00800           0
     10859 MEMB     88       PVCL2    H18B     HAL3     0.900000E-01   1.00800           0
     10860 MEMB     88       PVCL2    H18C     HAL3     0.900000E-01   1.00800           0
     10861 MEMB     88       PVCL2    CB3      CTL2    -0.180000       12.0110           0
     10862 MEMB     88       PVCL2    H3D      HAL2     0.900000E-01   1.00800           0
     10863 MEMB     88       PVCL2    H3E      HAL2     0.900000E-01   1.00800           0
     10864 MEMB     88       PVCL2    CB4      CTL2    -0.180000       12.0110           0
     10865 MEMB     88       PVCL2    H4D      HAL2     0.900000E-01   1.00800           0
     10866 MEMB     88       PVCL2    H4E      HAL2     0.900000E-01   1.00800           0
     10867 MEMB     88       PVCL2    CB5      CTL2    -0.180000       12.0110           0
     10868 MEMB     88       PVCL2    H5D      HAL2     0.900000E-01   1.00800           0
     10869 MEMB     88       PVCL2    H5E      HAL2     0.900000E-01   1.00800           0
     10870 MEMB     88       PVCL2    CB6      CTL2    -0.180000       12.0110           0
     10871 MEMB     88       PVCL2    H6D      HAL2     0.900000E-01   1.00800           0
     10872 MEMB     88       PVCL2    H6E      HAL2     0.900000E-01   1.00800           0
     10873 MEMB     88       PVCL2    CB7      CTL2    -0.180000       12.0110           0
     10874 MEMB     88       PVCL2    H7D      HAL2     0.900000E-01   1.00800           0
     10875 MEMB     88       PVCL2    H7E      HAL2     0.900000E-01   1.00800           0
     10876 MEMB     88       PVCL2    CB8      CTL2    -0.180000       12.0110           0
     10877 MEMB     88       PVCL2    H8D      HAL2     0.900000E-01   1.00800           0
     10878 MEMB     88       PVCL2    H8E      HAL2     0.900000E-01   1.00800           0
     10879 MEMB     88       PVCL2    CB9      CTL2    -0.180000       12.0110           0
     10880 MEMB     88       PVCL2    H9D      HAL2     0.900000E-01   1.00800           0
     10881 MEMB     88       PVCL2    H9E      HAL2     0.900000E-01   1.00800           0
     10882 MEMB     88       PVCL2    CB10     CTL2    -0.180000       12.0110           0
     10883 MEMB     88       PVCL2    H10D     HAL2     0.900000E-01   1.00800           0
     10884 MEMB     88       PVCL2    H10E     HAL2     0.900000E-01   1.00800           0
     10885 MEMB     88       PVCL2    CB11     CTL2    -0.180000       12.0110           0
     10886 MEMB     88       PVCL2    H11D     HAL2     0.900000E-01   1.00800           0
     10887 MEMB     88       PVCL2    H11E     HAL2     0.900000E-01   1.00800           0
     10888 MEMB     88       PVCL2    CB12     CTL2    -0.180000       12.0110           0
     10889 MEMB     88       PVCL2    H12D     HAL2     0.900000E-01   1.00800           0
     10890 MEMB     88       PVCL2    H12E     HAL2     0.900000E-01   1.00800           0
     10891 MEMB     88       PVCL2    CB13     CTL2    -0.180000       12.0110           0
     10892 MEMB     88       PVCL2    H13D     HAL2     0.900000E-01   1.00800           0
     10893 MEMB     88       PVCL2    H13E     HAL2     0.900000E-01   1.00800           0
     10894 MEMB     88       PVCL2    CB14     CTL2    -0.180000       12.0110           0
     10895 MEMB     88       PVCL2    H14D     HAL2     0.900000E-01   1.00800           0
     10896 MEMB     88       PVCL2    H14E     HAL2     0.900000E-01   1.00800           0
     10897 MEMB     88       PVCL2    CB15     CTL2    -0.180000       12.0110           0
     10898 MEMB     88       PVCL2    H15D     HAL2     0.900000E-01   1.00800           0
     10899 MEMB     88       PVCL2    H15E     HAL2     0.900000E-01   1.00800           0
     10900 MEMB     88       PVCL2    CB16     CTL3    -0.270000       12.0110           0
     10901 MEMB     88       PVCL2    H16D     HAL3     0.900000E-01   1.00800           0
     10902 MEMB     88       PVCL2    H16E     HAL3     0.900000E-01   1.00800           0
     10903 MEMB     88       PVCL2    H16F     HAL3     0.900000E-01   1.00800           0
     10904 MEMB     88       PVCL2    CC3      CTL2    -0.180000       12.0110           0
     10905 MEMB     88       PVCL2    H3R      HAL2     0.900000E-01   1.00800           0
     10906 MEMB     88       PVCL2    H3S      HAL2     0.900000E-01   1.00800           0
     10907 MEMB     88       PVCL2    CC4      CTL2    -0.180000       12.0110           0
     10908 MEMB     88       PVCL2    H4R      HAL2     0.900000E-01   1.00800           0
     10909 MEMB     88       PVCL2    H4S      HAL2     0.900000E-01   1.00800           0
     10910 MEMB     88       PVCL2    CC5      CTL2    -0.180000       12.0110           0
     10911 MEMB     88       PVCL2    H5R      HAL2     0.900000E-01   1.00800           0
     10912 MEMB     88       PVCL2    H5S      HAL2     0.900000E-01   1.00800           0
     10913 MEMB     88       PVCL2    CC6      CTL2    -0.180000       12.0110           0
     10914 MEMB     88       PVCL2    H6R      HAL2     0.900000E-01   1.00800           0
     10915 MEMB     88       PVCL2    H6S      HAL2     0.900000E-01   1.00800           0
     10916 MEMB     88       PVCL2    CC7      CTL2    -0.180000       12.0110           0
     10917 MEMB     88       PVCL2    H7R      HAL2     0.900000E-01   1.00800           0
     10918 MEMB     88       PVCL2    H7S      HAL2     0.900000E-01   1.00800           0
     10919 MEMB     88       PVCL2    CC8      CTL2    -0.180000       12.0110           0
     10920 MEMB     88       PVCL2    H8R      HAL2     0.900000E-01   1.00800           0
     10921 MEMB     88       PVCL2    H8S      HAL2     0.900000E-01   1.00800           0
     10922 MEMB     88       PVCL2    CC9      CTL2    -0.180000       12.0110           0
     10923 MEMB     88       PVCL2    H9R      HAL2     0.900000E-01   1.00800           0
     10924 MEMB     88       PVCL2    H9S      HAL2     0.900000E-01   1.00800           0
     10925 MEMB     88       PVCL2    CC10     CTL2    -0.180000       12.0110           0
     10926 MEMB     88       PVCL2    H10R     HAL2     0.900000E-01   1.00800           0
     10927 MEMB     88       PVCL2    H10S     HAL2     0.900000E-01   1.00800           0
     10928 MEMB     88       PVCL2    CC11     CEL1    -0.150000       12.0110           0
     10929 MEMB     88       PVCL2    H11R     HEL1     0.150000       1.00800           0
     10930 MEMB     88       PVCL2    CC12     CEL1    -0.150000       12.0110           0
     10931 MEMB     88       PVCL2    H12R     HEL1     0.150000       1.00800           0
     10932 MEMB     88       PVCL2    CC13     CTL2    -0.180000       12.0110           0
     10933 MEMB     88       PVCL2    H13R     HAL2     0.900000E-01   1.00800           0
     10934 MEMB     88       PVCL2    H13S     HAL2     0.900000E-01   1.00800           0
     10935 MEMB     88       PVCL2    CC14     CTL2    -0.180000       12.0110           0
     10936 MEMB     88       PVCL2    H14R     HAL2     0.900000E-01   1.00800           0
     10937 MEMB     88       PVCL2    H14S     HAL2     0.900000E-01   1.00800           0
     10938 MEMB     88       PVCL2    CC15     CTL2    -0.180000       12.0110           0
     10939 MEMB     88       PVCL2    H15R     HAL2     0.900000E-01   1.00800           0
     10940 MEMB     88       PVCL2    H15S     HAL2     0.900000E-01   1.00800           0
     10941 MEMB     88       PVCL2    CC16     CTL2    -0.180000       12.0110           0
     10942 MEMB     88       PVCL2    H16R     HAL2     0.900000E-01   1.00800           0
     10943 MEMB     88       PVCL2    H16S     HAL2     0.900000E-01   1.00800           0
     10944 MEMB     88       PVCL2    CC17     CTL2    -0.180000       12.0110           0
     10945 MEMB     88       PVCL2    H17R     HAL2     0.900000E-01   1.00800           0
     10946 MEMB     88       PVCL2    H17S     HAL2     0.900000E-01   1.00800           0
     10947 MEMB     88       PVCL2    CC18     CTL3    -0.270000       12.0110           0
     10948 MEMB     88       PVCL2    H18R     HAL3     0.900000E-01   1.00800           0
     10949 MEMB     88       PVCL2    H18S     HAL3     0.900000E-01   1.00800           0
     10950 MEMB     88       PVCL2    H18T     HAL3     0.900000E-01   1.00800           0
     10951 MEMB     88       PVCL2    CD3      CTL2    -0.180000       12.0110           0
     10952 MEMB     88       PVCL2    H3X      HAL2     0.900000E-01   1.00800           0
     10953 MEMB     88       PVCL2    H3Y      HAL2     0.900000E-01   1.00800           0
     10954 MEMB     88       PVCL2    CD4      CTL2    -0.180000       12.0110           0
     10955 MEMB     88       PVCL2    H4X      HAL2     0.900000E-01   1.00800           0
     10956 MEMB     88       PVCL2    H4Y      HAL2     0.900000E-01   1.00800           0
     10957 MEMB     88       PVCL2    CD5      CTL2    -0.180000       12.0110           0
     10958 MEMB     88       PVCL2    H5X      HAL2     0.900000E-01   1.00800           0
     10959 MEMB     88       PVCL2    H5Y      HAL2     0.900000E-01   1.00800           0
     10960 MEMB     88       PVCL2    CD6      CTL2    -0.180000       12.0110           0
     10961 MEMB     88       PVCL2    H6X      HAL2     0.900000E-01   1.00800           0
     10962 MEMB     88       PVCL2    H6Y      HAL2     0.900000E-01   1.00800           0
     10963 MEMB     88       PVCL2    CD7      CTL2    -0.180000       12.0110           0
     10964 MEMB     88       PVCL2    H7X      HAL2     0.900000E-01   1.00800           0
     10965 MEMB     88       PVCL2    H7Y      HAL2     0.900000E-01   1.00800           0
     10966 MEMB     88       PVCL2    CD8      CTL2    -0.180000       12.0110           0
     10967 MEMB     88       PVCL2    H8X      HAL2     0.900000E-01   1.00800           0
     10968 MEMB     88       PVCL2    H8Y      HAL2     0.900000E-01   1.00800           0
     10969 MEMB     88       PVCL2    CD9      CTL2    -0.180000       12.0110           0
     10970 MEMB     88       PVCL2    H9X      HAL2     0.900000E-01   1.00800           0
     10971 MEMB     88       PVCL2    H9Y      HAL2     0.900000E-01   1.00800           0
     10972 MEMB     88       PVCL2    CD10     CTL2    -0.180000       12.0110           0
     10973 MEMB     88       PVCL2    H10X     HAL2     0.900000E-01   1.00800           0
     10974 MEMB     88       PVCL2    H10Y     HAL2     0.900000E-01   1.00800           0
     10975 MEMB     88       PVCL2    CD11     CTL2    -0.180000       12.0110           0
     10976 MEMB     88       PVCL2    H11X     HAL2     0.900000E-01   1.00800           0
     10977 MEMB     88       PVCL2    H11Y     HAL2     0.900000E-01   1.00800           0
     10978 MEMB     88       PVCL2    CD12     CTL2    -0.180000       12.0110           0
     10979 MEMB     88       PVCL2    H12X     HAL2     0.900000E-01   1.00800           0
     10980 MEMB     88       PVCL2    H12Y     HAL2     0.900000E-01   1.00800           0
     10981 MEMB     88       PVCL2    CD13     CTL2    -0.180000       12.0110           0
     10982 MEMB     88       PVCL2    H13X     HAL2     0.900000E-01   1.00800           0
     10983 MEMB     88       PVCL2    H13Y     HAL2     0.900000E-01   1.00800           0
     10984 MEMB     88       PVCL2    CD14     CTL2    -0.180000       12.0110           0
     10985 MEMB     88       PVCL2    H14X     HAL2     0.900000E-01   1.00800           0
     10986 MEMB     88       PVCL2    H14Y     HAL2     0.900000E-01   1.00800           0
     10987 MEMB     88       PVCL2    CD15     CTL2    -0.180000       12.0110           0
     10988 MEMB     88       PVCL2    H15X     HAL2     0.900000E-01   1.00800           0
     10989 MEMB     88       PVCL2    H15Y     HAL2     0.900000E-01   1.00800           0
     10990 MEMB     88       PVCL2    CD16     CTL3    -0.270000       12.0110           0
     10991 MEMB     88       PVCL2    H16X     HAL3     0.900000E-01   1.00800           0
     10992 MEMB     88       PVCL2    H16Y     HAL3     0.900000E-01   1.00800           0
     10993 MEMB     88       PVCL2    H16Z     HAL3     0.900000E-01   1.00800           0
     10994 MEMB     89       QMPE     N        NH3L    -0.300000       14.0070           0
     10995 MEMB     89       QMPE     HN1      HCL      0.330000       1.00800           0
     10996 MEMB     89       QMPE     HN2      HCL      0.330000       1.00800           0
     10997 MEMB     89       QMPE     HN3      HCL      0.330000       1.00800           0
     10998 MEMB     89       QMPE     C12      CTL2     0.130000       12.0110           0
     10999 MEMB     89       QMPE     H12A     HAL2     0.900000E-01   1.00800           0
     11000 MEMB     89       QMPE     H12B     HAL2     0.900000E-01   1.00800           0
     11001 MEMB     89       QMPE     C11      CTL2    -0.800000E-01   12.0110           0
     11002 MEMB     89       QMPE     H11A     HAL2     0.900000E-01   1.00800           0
     11003 MEMB     89       QMPE     H11B     HAL2     0.900000E-01   1.00800           0
     11004 MEMB     89       QMPE     P        PL        1.50000       30.9740           0
     11005 MEMB     89       QMPE     O13      O2L     -0.780000       15.9994           0
     11006 MEMB     89       QMPE     O14      O2L     -0.780000       15.9994           0
     11007 MEMB     89       QMPE     O11      OSLP    -0.570000       15.9994           0
     11008 MEMB     89       QMPE     O12      OSLP    -0.570000       15.9994           0
     11009 MEMB     89       QMPE     C1       CTL2    -0.800000E-01   12.0110           0
     11010 MEMB     89       QMPE     HA       HAL2     0.900000E-01   1.00800           0
     11011 MEMB     89       QMPE     HB       HAL2     0.900000E-01   1.00800           0
     11012 MEMB     89       QMPE     C2       CTL1     0.170000       12.0110           0
     11013 MEMB     89       QMPE     HS       HAL1     0.900000E-01   1.00800           0
     11014 MEMB     89       QMPE     O21      OSL     -0.490000       15.9994           0
     11015 MEMB     89       QMPE     C21      CL       0.900000       12.0110           0
     11016 MEMB     89       QMPE     O22      OBL     -0.630000       15.9994           0
     11017 MEMB     89       QMPE     C22      CTL2    -0.220000       12.0110           0
     11018 MEMB     89       QMPE     H2R      HAL2     0.900000E-01   1.00800           0
     11019 MEMB     89       QMPE     H2S      HAL2     0.900000E-01   1.00800           0
     11020 MEMB     89       QMPE     C3       CTL2     0.800000E-01   12.0110           0
     11021 MEMB     89       QMPE     HX       HAL2     0.900000E-01   1.00800           0
     11022 MEMB     89       QMPE     HY       HAL2     0.900000E-01   1.00800           0
     11023 MEMB     89       QMPE     O31      OSL     -0.490000       15.9994           0
     11024 MEMB     89       QMPE     C31      CL       0.900000       12.0110           0
     11025 MEMB     89       QMPE     O32      OBL     -0.630000       15.9994           0
     11026 MEMB     89       QMPE     C32      CTL2    -0.220000       12.0110           0
     11027 MEMB     89       QMPE     H2X      HAL2     0.900000E-01   1.00800           0
     11028 MEMB     89       QMPE     H2Y      HAL2     0.900000E-01   1.00800           0
     11029 MEMB     89       QMPE     C23      CTL2    -0.180000       12.0110           0
     11030 MEMB     89       QMPE     H3R      HAL2     0.900000E-01   1.00800           0
     11031 MEMB     89       QMPE     H3S      HAL2     0.900000E-01   1.00800           0
     11032 MEMB     89       QMPE     C24      CTL2    -0.180000       12.0110           0
     11033 MEMB     89       QMPE     H4R      HAL2     0.900000E-01   1.00800           0
     11034 MEMB     89       QMPE     H4S      HAL2     0.900000E-01   1.00800           0
     11035 MEMB     89       QMPE     C25      CTL2    -0.180000       12.0110           0
     11036 MEMB     89       QMPE     H5R      HAL2     0.900000E-01   1.00800           0
     11037 MEMB     89       QMPE     H5S      HAL2     0.900000E-01   1.00800           0
     11038 MEMB     89       QMPE     C26      CTL2    -0.180000       12.0110           0
     11039 MEMB     89       QMPE     H6R      HAL2     0.900000E-01   1.00800           0
     11040 MEMB     89       QMPE     H6S      HAL2     0.900000E-01   1.00800           0
     11041 MEMB     89       QMPE     C27      CTL2    -0.180000       12.0110           0
     11042 MEMB     89       QMPE     H7R      HAL2     0.900000E-01   1.00800           0
     11043 MEMB     89       QMPE     H7S      HAL2     0.900000E-01   1.00800           0
     11044 MEMB     89       QMPE     C28      CTL2    -0.180000       12.0110           0
     11045 MEMB     89       QMPE     H8R      HAL2     0.900000E-01   1.00800           0
     11046 MEMB     89       QMPE     H8S      HAL2     0.900000E-01   1.00800           0
     11047 MEMB     89       QMPE     C29      CG3RC1  -0.900000E-01   12.0110           0
     11048 MEMB     89       QMPE     H9R      HGA1     0.900000E-01   1.00800           0
     11049 MEMB     89       QMPE     C217     CG3C31  -0.180000       12.0110           0
     11050 MEMB     89       QMPE     H17R     HGA2     0.900000E-01   1.00800           0
     11051 MEMB     89       QMPE     H17S     HGA2     0.900000E-01   1.00800           0
     11052 MEMB     89       QMPE     C210     CG3RC1  -0.900000E-01   12.0110           0
     11053 MEMB     89       QMPE     H10R     HGA1     0.900000E-01   1.00800           0
     11054 MEMB     89       QMPE     C211     CTL2    -0.180000       12.0110           0
     11055 MEMB     89       QMPE     H11R     HAL2     0.900000E-01   1.00800           0
     11056 MEMB     89       QMPE     H11S     HAL2     0.900000E-01   1.00800           0
     11057 MEMB     89       QMPE     C212     CTL2    -0.180000       12.0110           0
     11058 MEMB     89       QMPE     H12R     HAL2     0.900000E-01   1.00800           0
     11059 MEMB     89       QMPE     H12S     HAL2     0.900000E-01   1.00800           0
     11060 MEMB     89       QMPE     C213     CTL2    -0.180000       12.0110           0
     11061 MEMB     89       QMPE     H13R     HAL2     0.900000E-01   1.00800           0
     11062 MEMB     89       QMPE     H13S     HAL2     0.900000E-01   1.00800           0
     11063 MEMB     89       QMPE     C214     CTL2    -0.180000       12.0110           0
     11064 MEMB     89       QMPE     H14R     HAL2     0.900000E-01   1.00800           0
     11065 MEMB     89       QMPE     H14S     HAL2     0.900000E-01   1.00800           0
     11066 MEMB     89       QMPE     C215     CTL2    -0.180000       12.0110           0
     11067 MEMB     89       QMPE     H15R     HAL2     0.900000E-01   1.00800           0
     11068 MEMB     89       QMPE     H15S     HAL2     0.900000E-01   1.00800           0
     11069 MEMB     89       QMPE     C216     CTL3    -0.270000       12.0110           0
     11070 MEMB     89       QMPE     H16R     HAL3     0.900000E-01   1.00800           0
     11071 MEMB     89       QMPE     H16S     HAL3     0.900000E-01   1.00800           0
     11072 MEMB     89       QMPE     H16T     HAL3     0.900000E-01   1.00800           0
     11073 MEMB     89       QMPE     C33      CTL2    -0.180000       12.0110           0
     11074 MEMB     89       QMPE     H3X      HAL2     0.900000E-01   1.00800           0
     11075 MEMB     89       QMPE     H3Y      HAL2     0.900000E-01   1.00800           0
     11076 MEMB     89       QMPE     C34      CTL2    -0.180000       12.0110           0
     11077 MEMB     89       QMPE     H4X      HAL2     0.900000E-01   1.00800           0
     11078 MEMB     89       QMPE     H4Y      HAL2     0.900000E-01   1.00800           0
     11079 MEMB     89       QMPE     C35      CTL2    -0.180000       12.0110           0
     11080 MEMB     89       QMPE     H5X      HAL2     0.900000E-01   1.00800           0
     11081 MEMB     89       QMPE     H5Y      HAL2     0.900000E-01   1.00800           0
     11082 MEMB     89       QMPE     C36      CTL2    -0.180000       12.0110           0
     11083 MEMB     89       QMPE     H6X      HAL2     0.900000E-01   1.00800           0
     11084 MEMB     89       QMPE     H6Y      HAL2     0.900000E-01   1.00800           0
     11085 MEMB     89       QMPE     C37      CTL2    -0.180000       12.0110           0
     11086 MEMB     89       QMPE     H7X      HAL2     0.900000E-01   1.00800           0
     11087 MEMB     89       QMPE     H7Y      HAL2     0.900000E-01   1.00800           0
     11088 MEMB     89       QMPE     C38      CTL2    -0.180000       12.0110           0
     11089 MEMB     89       QMPE     H8X      HAL2     0.900000E-01   1.00800           0
     11090 MEMB     89       QMPE     H8Y      HAL2     0.900000E-01   1.00800           0
     11091 MEMB     89       QMPE     C39      CTL2    -0.180000       12.0110           0
     11092 MEMB     89       QMPE     H9X      HAL2     0.900000E-01   1.00800           0
     11093 MEMB     89       QMPE     H9Y      HAL2     0.900000E-01   1.00800           0
     11094 MEMB     89       QMPE     C310     CTL2    -0.180000       12.0110           0
     11095 MEMB     89       QMPE     H10X     HAL2     0.900000E-01   1.00800           0
     11096 MEMB     89       QMPE     H10Y     HAL2     0.900000E-01   1.00800           0
     11097 MEMB     89       QMPE     C311     CTL2    -0.180000       12.0110           0
     11098 MEMB     89       QMPE     H11X     HAL2     0.900000E-01   1.00800           0
     11099 MEMB     89       QMPE     H11Y     HAL2     0.900000E-01   1.00800           0
     11100 MEMB     89       QMPE     C312     CTL2    -0.180000       12.0110           0
     11101 MEMB     89       QMPE     H12X     HAL2     0.900000E-01   1.00800           0
     11102 MEMB     89       QMPE     H12Y     HAL2     0.900000E-01   1.00800           0
     11103 MEMB     89       QMPE     C313     CTL2    -0.180000       12.0110           0
     11104 MEMB     89       QMPE     H13X     HAL2     0.900000E-01   1.00800           0
     11105 MEMB     89       QMPE     H13Y     HAL2     0.900000E-01   1.00800           0
     11106 MEMB     89       QMPE     C314     CTL2    -0.180000       12.0110           0
     11107 MEMB     89       QMPE     H14X     HAL2     0.900000E-01   1.00800           0
     11108 MEMB     89       QMPE     H14Y     HAL2     0.900000E-01   1.00800           0
     11109 MEMB     89       QMPE     C315     CTL3    -0.270000       12.0110           0
     11110 MEMB     89       QMPE     H15X     HAL3     0.900000E-01   1.00800           0
     11111 MEMB     89       QMPE     H15Y     HAL3     0.900000E-01   1.00800           0
     11112 MEMB     89       QMPE     H15Z     HAL3     0.900000E-01   1.00800           0
     11113 MEMB     90       PMPE     N        NH3L    -0.300000       14.0070           0
     11114 MEMB     90       PMPE     HN1      HCL      0.330000       1.00800           0
     11115 MEMB     90       PMPE     HN2      HCL      0.330000       1.00800           0
     11116 MEMB     90       PMPE     HN3      HCL      0.330000       1.00800           0
     11117 MEMB     90       PMPE     C12      CTL2     0.130000       12.0110           0
     11118 MEMB     90       PMPE     H12A     HAL2     0.900000E-01   1.00800           0
     11119 MEMB     90       PMPE     H12B     HAL2     0.900000E-01   1.00800           0
     11120 MEMB     90       PMPE     C11      CTL2    -0.800000E-01   12.0110           0
     11121 MEMB     90       PMPE     H11A     HAL2     0.900000E-01   1.00800           0
     11122 MEMB     90       PMPE     H11B     HAL2     0.900000E-01   1.00800           0
     11123 MEMB     90       PMPE     P        PL        1.50000       30.9740           0
     11124 MEMB     90       PMPE     O13      O2L     -0.780000       15.9994           0
     11125 MEMB     90       PMPE     O14      O2L     -0.780000       15.9994           0
     11126 MEMB     90       PMPE     O11      OSLP    -0.570000       15.9994           0
     11127 MEMB     90       PMPE     O12      OSLP    -0.570000       15.9994           0
     11128 MEMB     90       PMPE     C1       CTL2    -0.800000E-01   12.0110           0
     11129 MEMB     90       PMPE     HA       HAL2     0.900000E-01   1.00800           0
     11130 MEMB     90       PMPE     HB       HAL2     0.900000E-01   1.00800           0
     11131 MEMB     90       PMPE     C2       CTL1     0.170000       12.0110           0
     11132 MEMB     90       PMPE     HS       HAL1     0.900000E-01   1.00800           0
     11133 MEMB     90       PMPE     O21      OSL     -0.490000       15.9994           0
     11134 MEMB     90       PMPE     C21      CL       0.900000       12.0110           0
     11135 MEMB     90       PMPE     O22      OBL     -0.630000       15.9994           0
     11136 MEMB     90       PMPE     C22      CTL2    -0.220000       12.0110           0
     11137 MEMB     90       PMPE     H2R      HAL2     0.900000E-01   1.00800           0
     11138 MEMB     90       PMPE     H2S      HAL2     0.900000E-01   1.00800           0
     11139 MEMB     90       PMPE     C3       CTL2     0.800000E-01   12.0110           0
     11140 MEMB     90       PMPE     HX       HAL2     0.900000E-01   1.00800           0
     11141 MEMB     90       PMPE     HY       HAL2     0.900000E-01   1.00800           0
     11142 MEMB     90       PMPE     O31      OSL     -0.490000       15.9994           0
     11143 MEMB     90       PMPE     C31      CL       0.900000       12.0110           0
     11144 MEMB     90       PMPE     O32      OBL     -0.630000       15.9994           0
     11145 MEMB     90       PMPE     C32      CTL2    -0.220000       12.0110           0
     11146 MEMB     90       PMPE     H2X      HAL2     0.900000E-01   1.00800           0
     11147 MEMB     90       PMPE     H2Y      HAL2     0.900000E-01   1.00800           0
     11148 MEMB     90       PMPE     C23      CTL2    -0.180000       12.0110           0
     11149 MEMB     90       PMPE     H3R      HAL2     0.900000E-01   1.00800           0
     11150 MEMB     90       PMPE     H3S      HAL2     0.900000E-01   1.00800           0
     11151 MEMB     90       PMPE     C24      CTL2    -0.180000       12.0110           0
     11152 MEMB     90       PMPE     H4R      HAL2     0.900000E-01   1.00800           0
     11153 MEMB     90       PMPE     H4S      HAL2     0.900000E-01   1.00800           0
     11154 MEMB     90       PMPE     C25      CTL2    -0.180000       12.0110           0
     11155 MEMB     90       PMPE     H5R      HAL2     0.900000E-01   1.00800           0
     11156 MEMB     90       PMPE     H5S      HAL2     0.900000E-01   1.00800           0
     11157 MEMB     90       PMPE     C26      CTL2    -0.180000       12.0110           0
     11158 MEMB     90       PMPE     H6R      HAL2     0.900000E-01   1.00800           0
     11159 MEMB     90       PMPE     H6S      HAL2     0.900000E-01   1.00800           0
     11160 MEMB     90       PMPE     C27      CTL2    -0.180000       12.0110           0
     11161 MEMB     90       PMPE     H7R      HAL2     0.900000E-01   1.00800           0
     11162 MEMB     90       PMPE     H7S      HAL2     0.900000E-01   1.00800           0
     11163 MEMB     90       PMPE     C28      CTL2    -0.180000       12.0110           0
     11164 MEMB     90       PMPE     H8R      HAL2     0.900000E-01   1.00800           0
     11165 MEMB     90       PMPE     H8S      HAL2     0.900000E-01   1.00800           0
     11166 MEMB     90       PMPE     C29      CG3RC1  -0.900000E-01   12.0110           0
     11167 MEMB     90       PMPE     H9R      HGA1     0.900000E-01   1.00800           0
     11168 MEMB     90       PMPE     C217     CG3C31  -0.180000       12.0110           0
     11169 MEMB     90       PMPE     H17R     HGA2     0.900000E-01   1.00800           0
     11170 MEMB     90       PMPE     H17S     HGA2     0.900000E-01   1.00800           0
     11171 MEMB     90       PMPE     C210     CG3RC1  -0.900000E-01   12.0110           0
     11172 MEMB     90       PMPE     H10R     HGA1     0.900000E-01   1.00800           0
     11173 MEMB     90       PMPE     C211     CTL2    -0.180000       12.0110           0
     11174 MEMB     90       PMPE     H11R     HAL2     0.900000E-01   1.00800           0
     11175 MEMB     90       PMPE     H11S     HAL2     0.900000E-01   1.00800           0
     11176 MEMB     90       PMPE     C212     CTL2    -0.180000       12.0110           0
     11177 MEMB     90       PMPE     H12R     HAL2     0.900000E-01   1.00800           0
     11178 MEMB     90       PMPE     H12S     HAL2     0.900000E-01   1.00800           0
     11179 MEMB     90       PMPE     C213     CTL2    -0.180000       12.0110           0
     11180 MEMB     90       PMPE     H13R     HAL2     0.900000E-01   1.00800           0
     11181 MEMB     90       PMPE     H13S     HAL2     0.900000E-01   1.00800           0
     11182 MEMB     90       PMPE     C214     CTL2    -0.180000       12.0110           0
     11183 MEMB     90       PMPE     H14R     HAL2     0.900000E-01   1.00800           0
     11184 MEMB     90       PMPE     H14S     HAL2     0.900000E-01   1.00800           0
     11185 MEMB     90       PMPE     C215     CTL2    -0.180000       12.0110           0
     11186 MEMB     90       PMPE     H15R     HAL2     0.900000E-01   1.00800           0
     11187 MEMB     90       PMPE     H15S     HAL2     0.900000E-01   1.00800           0
     11188 MEMB     90       PMPE     C216     CTL3    -0.270000       12.0110           0
     11189 MEMB     90       PMPE     H16R     HAL3     0.900000E-01   1.00800           0
     11190 MEMB     90       PMPE     H16S     HAL3     0.900000E-01   1.00800           0
     11191 MEMB     90       PMPE     H16T     HAL3     0.900000E-01   1.00800           0
     11192 MEMB     90       PMPE     C33      CTL2    -0.180000       12.0110           0
     11193 MEMB     90       PMPE     H3X      HAL2     0.900000E-01   1.00800           0
     11194 MEMB     90       PMPE     H3Y      HAL2     0.900000E-01   1.00800           0
     11195 MEMB     90       PMPE     C34      CTL2    -0.180000       12.0110           0
     11196 MEMB     90       PMPE     H4X      HAL2     0.900000E-01   1.00800           0
     11197 MEMB     90       PMPE     H4Y      HAL2     0.900000E-01   1.00800           0
     11198 MEMB     90       PMPE     C35      CTL2    -0.180000       12.0110           0
     11199 MEMB     90       PMPE     H5X      HAL2     0.900000E-01   1.00800           0
     11200 MEMB     90       PMPE     H5Y      HAL2     0.900000E-01   1.00800           0
     11201 MEMB     90       PMPE     C36      CTL2    -0.180000       12.0110           0
     11202 MEMB     90       PMPE     H6X      HAL2     0.900000E-01   1.00800           0
     11203 MEMB     90       PMPE     H6Y      HAL2     0.900000E-01   1.00800           0
     11204 MEMB     90       PMPE     C37      CTL2    -0.180000       12.0110           0
     11205 MEMB     90       PMPE     H7X      HAL2     0.900000E-01   1.00800           0
     11206 MEMB     90       PMPE     H7Y      HAL2     0.900000E-01   1.00800           0
     11207 MEMB     90       PMPE     C38      CTL2    -0.180000       12.0110           0
     11208 MEMB     90       PMPE     H8X      HAL2     0.900000E-01   1.00800           0
     11209 MEMB     90       PMPE     H8Y      HAL2     0.900000E-01   1.00800           0
     11210 MEMB     90       PMPE     C39      CTL2    -0.180000       12.0110           0
     11211 MEMB     90       PMPE     H9X      HAL2     0.900000E-01   1.00800           0
     11212 MEMB     90       PMPE     H9Y      HAL2     0.900000E-01   1.00800           0
     11213 MEMB     90       PMPE     C310     CTL2    -0.180000       12.0110           0
     11214 MEMB     90       PMPE     H10X     HAL2     0.900000E-01   1.00800           0
     11215 MEMB     90       PMPE     H10Y     HAL2     0.900000E-01   1.00800           0
     11216 MEMB     90       PMPE     C311     CTL2    -0.180000       12.0110           0
     11217 MEMB     90       PMPE     H11X     HAL2     0.900000E-01   1.00800           0
     11218 MEMB     90       PMPE     H11Y     HAL2     0.900000E-01   1.00800           0
     11219 MEMB     90       PMPE     C312     CTL2    -0.180000       12.0110           0
     11220 MEMB     90       PMPE     H12X     HAL2     0.900000E-01   1.00800           0
     11221 MEMB     90       PMPE     H12Y     HAL2     0.900000E-01   1.00800           0
     11222 MEMB     90       PMPE     C313     CTL2    -0.180000       12.0110           0
     11223 MEMB     90       PMPE     H13X     HAL2     0.900000E-01   1.00800           0
     11224 MEMB     90       PMPE     H13Y     HAL2     0.900000E-01   1.00800           0
     11225 MEMB     90       PMPE     C314     CTL2    -0.180000       12.0110           0
     11226 MEMB     90       PMPE     H14X     HAL2     0.900000E-01   1.00800           0
     11227 MEMB     90       PMPE     H14Y     HAL2     0.900000E-01   1.00800           0
     11228 MEMB     90       PMPE     C315     CTL2    -0.180000       12.0110           0
     11229 MEMB     90       PMPE     H15X     HAL2     0.900000E-01   1.00800           0
     11230 MEMB     90       PMPE     H15Y     HAL2     0.900000E-01   1.00800           0
     11231 MEMB     90       PMPE     C316     CTL3    -0.270000       12.0110           0
     11232 MEMB     90       PMPE     H16X     HAL3     0.900000E-01   1.00800           0
     11233 MEMB     90       PMPE     H16Y     HAL3     0.900000E-01   1.00800           0
     11234 MEMB     90       PMPE     H16Z     HAL3     0.900000E-01   1.00800           0
     11235 MEMB     91       QMPE     N        NH3L    -0.300000       14.0070           0
     11236 MEMB     91       QMPE     HN1      HCL      0.330000       1.00800           0
     11237 MEMB     91       QMPE     HN2      HCL      0.330000       1.00800           0
     11238 MEMB     91       QMPE     HN3      HCL      0.330000       1.00800           0
     11239 MEMB     91       QMPE     C12      CTL2     0.130000       12.0110           0
     11240 MEMB     91       QMPE     H12A     HAL2     0.900000E-01   1.00800           0
     11241 MEMB     91       QMPE     H12B     HAL2     0.900000E-01   1.00800           0
     11242 MEMB     91       QMPE     C11      CTL2    -0.800000E-01   12.0110           0
     11243 MEMB     91       QMPE     H11A     HAL2     0.900000E-01   1.00800           0
     11244 MEMB     91       QMPE     H11B     HAL2     0.900000E-01   1.00800           0
     11245 MEMB     91       QMPE     P        PL        1.50000       30.9740           0
     11246 MEMB     91       QMPE     O13      O2L     -0.780000       15.9994           0
     11247 MEMB     91       QMPE     O14      O2L     -0.780000       15.9994           0
     11248 MEMB     91       QMPE     O11      OSLP    -0.570000       15.9994           0
     11249 MEMB     91       QMPE     O12      OSLP    -0.570000       15.9994           0
     11250 MEMB     91       QMPE     C1       CTL2    -0.800000E-01   12.0110           0
     11251 MEMB     91       QMPE     HA       HAL2     0.900000E-01   1.00800           0
     11252 MEMB     91       QMPE     HB       HAL2     0.900000E-01   1.00800           0
     11253 MEMB     91       QMPE     C2       CTL1     0.170000       12.0110           0
     11254 MEMB     91       QMPE     HS       HAL1     0.900000E-01   1.00800           0
     11255 MEMB     91       QMPE     O21      OSL     -0.490000       15.9994           0
     11256 MEMB     91       QMPE     C21      CL       0.900000       12.0110           0
     11257 MEMB     91       QMPE     O22      OBL     -0.630000       15.9994           0
     11258 MEMB     91       QMPE     C22      CTL2    -0.220000       12.0110           0
     11259 MEMB     91       QMPE     H2R      HAL2     0.900000E-01   1.00800           0
     11260 MEMB     91       QMPE     H2S      HAL2     0.900000E-01   1.00800           0
     11261 MEMB     91       QMPE     C3       CTL2     0.800000E-01   12.0110           0
     11262 MEMB     91       QMPE     HX       HAL2     0.900000E-01   1.00800           0
     11263 MEMB     91       QMPE     HY       HAL2     0.900000E-01   1.00800           0
     11264 MEMB     91       QMPE     O31      OSL     -0.490000       15.9994           0
     11265 MEMB     91       QMPE     C31      CL       0.900000       12.0110           0
     11266 MEMB     91       QMPE     O32      OBL     -0.630000       15.9994           0
     11267 MEMB     91       QMPE     C32      CTL2    -0.220000       12.0110           0
     11268 MEMB     91       QMPE     H2X      HAL2     0.900000E-01   1.00800           0
     11269 MEMB     91       QMPE     H2Y      HAL2     0.900000E-01   1.00800           0
     11270 MEMB     91       QMPE     C23      CTL2    -0.180000       12.0110           0
     11271 MEMB     91       QMPE     H3R      HAL2     0.900000E-01   1.00800           0
     11272 MEMB     91       QMPE     H3S      HAL2     0.900000E-01   1.00800           0
     11273 MEMB     91       QMPE     C24      CTL2    -0.180000       12.0110           0
     11274 MEMB     91       QMPE     H4R      HAL2     0.900000E-01   1.00800           0
     11275 MEMB     91       QMPE     H4S      HAL2     0.900000E-01   1.00800           0
     11276 MEMB     91       QMPE     C25      CTL2    -0.180000       12.0110           0
     11277 MEMB     91       QMPE     H5R      HAL2     0.900000E-01   1.00800           0
     11278 MEMB     91       QMPE     H5S      HAL2     0.900000E-01   1.00800           0
     11279 MEMB     91       QMPE     C26      CTL2    -0.180000       12.0110           0
     11280 MEMB     91       QMPE     H6R      HAL2     0.900000E-01   1.00800           0
     11281 MEMB     91       QMPE     H6S      HAL2     0.900000E-01   1.00800           0
     11282 MEMB     91       QMPE     C27      CTL2    -0.180000       12.0110           0
     11283 MEMB     91       QMPE     H7R      HAL2     0.900000E-01   1.00800           0
     11284 MEMB     91       QMPE     H7S      HAL2     0.900000E-01   1.00800           0
     11285 MEMB     91       QMPE     C28      CTL2    -0.180000       12.0110           0
     11286 MEMB     91       QMPE     H8R      HAL2     0.900000E-01   1.00800           0
     11287 MEMB     91       QMPE     H8S      HAL2     0.900000E-01   1.00800           0
     11288 MEMB     91       QMPE     C29      CG3RC1  -0.900000E-01   12.0110           0
     11289 MEMB     91       QMPE     H9R      HGA1     0.900000E-01   1.00800           0
     11290 MEMB     91       QMPE     C217     CG3C31  -0.180000       12.0110           0
     11291 MEMB     91       QMPE     H17R     HGA2     0.900000E-01   1.00800           0
     11292 MEMB     91       QMPE     H17S     HGA2     0.900000E-01   1.00800           0
     11293 MEMB     91       QMPE     C210     CG3RC1  -0.900000E-01   12.0110           0
     11294 MEMB     91       QMPE     H10R     HGA1     0.900000E-01   1.00800           0
     11295 MEMB     91       QMPE     C211     CTL2    -0.180000       12.0110           0
     11296 MEMB     91       QMPE     H11R     HAL2     0.900000E-01   1.00800           0
     11297 MEMB     91       QMPE     H11S     HAL2     0.900000E-01   1.00800           0
     11298 MEMB     91       QMPE     C212     CTL2    -0.180000       12.0110           0
     11299 MEMB     91       QMPE     H12R     HAL2     0.900000E-01   1.00800           0
     11300 MEMB     91       QMPE     H12S     HAL2     0.900000E-01   1.00800           0
     11301 MEMB     91       QMPE     C213     CTL2    -0.180000       12.0110           0
     11302 MEMB     91       QMPE     H13R     HAL2     0.900000E-01   1.00800           0
     11303 MEMB     91       QMPE     H13S     HAL2     0.900000E-01   1.00800           0
     11304 MEMB     91       QMPE     C214     CTL2    -0.180000       12.0110           0
     11305 MEMB     91       QMPE     H14R     HAL2     0.900000E-01   1.00800           0
     11306 MEMB     91       QMPE     H14S     HAL2     0.900000E-01   1.00800           0
     11307 MEMB     91       QMPE     C215     CTL2    -0.180000       12.0110           0
     11308 MEMB     91       QMPE     H15R     HAL2     0.900000E-01   1.00800           0
     11309 MEMB     91       QMPE     H15S     HAL2     0.900000E-01   1.00800           0
     11310 MEMB     91       QMPE     C216     CTL3    -0.270000       12.0110           0
     11311 MEMB     91       QMPE     H16R     HAL3     0.900000E-01   1.00800           0
     11312 MEMB     91       QMPE     H16S     HAL3     0.900000E-01   1.00800           0
     11313 MEMB     91       QMPE     H16T     HAL3     0.900000E-01   1.00800           0
     11314 MEMB     91       QMPE     C33      CTL2    -0.180000       12.0110           0
     11315 MEMB     91       QMPE     H3X      HAL2     0.900000E-01   1.00800           0
     11316 MEMB     91       QMPE     H3Y      HAL2     0.900000E-01   1.00800           0
     11317 MEMB     91       QMPE     C34      CTL2    -0.180000       12.0110           0
     11318 MEMB     91       QMPE     H4X      HAL2     0.900000E-01   1.00800           0
     11319 MEMB     91       QMPE     H4Y      HAL2     0.900000E-01   1.00800           0
     11320 MEMB     91       QMPE     C35      CTL2    -0.180000       12.0110           0
     11321 MEMB     91       QMPE     H5X      HAL2     0.900000E-01   1.00800           0
     11322 MEMB     91       QMPE     H5Y      HAL2     0.900000E-01   1.00800           0
     11323 MEMB     91       QMPE     C36      CTL2    -0.180000       12.0110           0
     11324 MEMB     91       QMPE     H6X      HAL2     0.900000E-01   1.00800           0
     11325 MEMB     91       QMPE     H6Y      HAL2     0.900000E-01   1.00800           0
     11326 MEMB     91       QMPE     C37      CTL2    -0.180000       12.0110           0
     11327 MEMB     91       QMPE     H7X      HAL2     0.900000E-01   1.00800           0
     11328 MEMB     91       QMPE     H7Y      HAL2     0.900000E-01   1.00800           0
     11329 MEMB     91       QMPE     C38      CTL2    -0.180000       12.0110           0
     11330 MEMB     91       QMPE     H8X      HAL2     0.900000E-01   1.00800           0
     11331 MEMB     91       QMPE     H8Y      HAL2     0.900000E-01   1.00800           0
     11332 MEMB     91       QMPE     C39      CTL2    -0.180000       12.0110           0
     11333 MEMB     91       QMPE     H9X      HAL2     0.900000E-01   1.00800           0
     11334 MEMB     91       QMPE     H9Y      HAL2     0.900000E-01   1.00800           0
     11335 MEMB     91       QMPE     C310     CTL2    -0.180000       12.0110           0
     11336 MEMB     91       QMPE     H10X     HAL2     0.900000E-01   1.00800           0
     11337 MEMB     91       QMPE     H10Y     HAL2     0.900000E-01   1.00800           0
     11338 MEMB     91       QMPE     C311     CTL2    -0.180000       12.0110           0
     11339 MEMB     91       QMPE     H11X     HAL2     0.900000E-01   1.00800           0
     11340 MEMB     91       QMPE     H11Y     HAL2     0.900000E-01   1.00800           0
     11341 MEMB     91       QMPE     C312     CTL2    -0.180000       12.0110           0
     11342 MEMB     91       QMPE     H12X     HAL2     0.900000E-01   1.00800           0
     11343 MEMB     91       QMPE     H12Y     HAL2     0.900000E-01   1.00800           0
     11344 MEMB     91       QMPE     C313     CTL2    -0.180000       12.0110           0
     11345 MEMB     91       QMPE     H13X     HAL2     0.900000E-01   1.00800           0
     11346 MEMB     91       QMPE     H13Y     HAL2     0.900000E-01   1.00800           0
     11347 MEMB     91       QMPE     C314     CTL2    -0.180000       12.0110           0
     11348 MEMB     91       QMPE     H14X     HAL2     0.900000E-01   1.00800           0
     11349 MEMB     91       QMPE     H14Y     HAL2     0.900000E-01   1.00800           0
     11350 MEMB     91       QMPE     C315     CTL3    -0.270000       12.0110           0
     11351 MEMB     91       QMPE     H15X     HAL3     0.900000E-01   1.00800           0
     11352 MEMB     91       QMPE     H15Y     HAL3     0.900000E-01   1.00800           0
     11353 MEMB     91       QMPE     H15Z     HAL3     0.900000E-01   1.00800           0
     11354 MEMB     92       PMPG     C13      CTL2     0.500000E-01   12.0110           0
     11355 MEMB     92       PMPG     H13A     HAL2     0.900000E-01   1.00800           0
     11356 MEMB     92       PMPG     H13B     HAL2     0.900000E-01   1.00800           0
     11357 MEMB     92       PMPG     OC3      OHL     -0.660000       15.9994           0
     11358 MEMB     92       PMPG     HO3      HOL      0.430000       1.00800           0
     11359 MEMB     92       PMPG     C12      CTL1     0.140000       12.0110           0
     11360 MEMB     92       PMPG     H12A     HAL1     0.900000E-01   1.00800           0
     11361 MEMB     92       PMPG     OC2      OHL     -0.660000       15.9994           0
     11362 MEMB     92       PMPG     HO2      HOL      0.430000       1.00800           0
     11363 MEMB     92       PMPG     C11      CTL2    -0.800000E-01   12.0110           0
     11364 MEMB     92       PMPG     H11A     HAL2     0.900000E-01   1.00800           0
     11365 MEMB     92       PMPG     H11B     HAL2     0.900000E-01   1.00800           0
     11366 MEMB     92       PMPG     P        PL        1.50000       30.9740           0
     11367 MEMB     92       PMPG     O13      O2L     -0.780000       15.9994           0
     11368 MEMB     92       PMPG     O14      O2L     -0.780000       15.9994           0
     11369 MEMB     92       PMPG     O11      OSLP    -0.570000       15.9994           0
     11370 MEMB     92       PMPG     O12      OSLP    -0.570000       15.9994           0
     11371 MEMB     92       PMPG     C1       CTL2    -0.800000E-01   12.0110           0
     11372 MEMB     92       PMPG     HA       HAL2     0.900000E-01   1.00800           0
     11373 MEMB     92       PMPG     HB       HAL2     0.900000E-01   1.00800           0
     11374 MEMB     92       PMPG     C2       CTL1     0.170000       12.0110           0
     11375 MEMB     92       PMPG     HS       HAL1     0.900000E-01   1.00800           0
     11376 MEMB     92       PMPG     O21      OSL     -0.490000       15.9994           0
     11377 MEMB     92       PMPG     C21      CL       0.900000       12.0110           0
     11378 MEMB     92       PMPG     O22      OBL     -0.630000       15.9994           0
     11379 MEMB     92       PMPG     C22      CTL2    -0.220000       12.0110           0
     11380 MEMB     92       PMPG     H2R      HAL2     0.900000E-01   1.00800           0
     11381 MEMB     92       PMPG     H2S      HAL2     0.900000E-01   1.00800           0
     11382 MEMB     92       PMPG     C3       CTL2     0.800000E-01   12.0110           0
     11383 MEMB     92       PMPG     HX       HAL2     0.900000E-01   1.00800           0
     11384 MEMB     92       PMPG     HY       HAL2     0.900000E-01   1.00800           0
     11385 MEMB     92       PMPG     O31      OSL     -0.490000       15.9994           0
     11386 MEMB     92       PMPG     C31      CL       0.900000       12.0110           0
     11387 MEMB     92       PMPG     O32      OBL     -0.630000       15.9994           0
     11388 MEMB     92       PMPG     C32      CTL2    -0.220000       12.0110           0
     11389 MEMB     92       PMPG     H2X      HAL2     0.900000E-01   1.00800           0
     11390 MEMB     92       PMPG     H2Y      HAL2     0.900000E-01   1.00800           0
     11391 MEMB     92       PMPG     C23      CTL2    -0.180000       12.0110           0
     11392 MEMB     92       PMPG     H3R      HAL2     0.900000E-01   1.00800           0
     11393 MEMB     92       PMPG     H3S      HAL2     0.900000E-01   1.00800           0
     11394 MEMB     92       PMPG     C24      CTL2    -0.180000       12.0110           0
     11395 MEMB     92       PMPG     H4R      HAL2     0.900000E-01   1.00800           0
     11396 MEMB     92       PMPG     H4S      HAL2     0.900000E-01   1.00800           0
     11397 MEMB     92       PMPG     C25      CTL2    -0.180000       12.0110           0
     11398 MEMB     92       PMPG     H5R      HAL2     0.900000E-01   1.00800           0
     11399 MEMB     92       PMPG     H5S      HAL2     0.900000E-01   1.00800           0
     11400 MEMB     92       PMPG     C26      CTL2    -0.180000       12.0110           0
     11401 MEMB     92       PMPG     H6R      HAL2     0.900000E-01   1.00800           0
     11402 MEMB     92       PMPG     H6S      HAL2     0.900000E-01   1.00800           0
     11403 MEMB     92       PMPG     C27      CTL2    -0.180000       12.0110           0
     11404 MEMB     92       PMPG     H7R      HAL2     0.900000E-01   1.00800           0
     11405 MEMB     92       PMPG     H7S      HAL2     0.900000E-01   1.00800           0
     11406 MEMB     92       PMPG     C28      CTL2    -0.180000       12.0110           0
     11407 MEMB     92       PMPG     H8R      HAL2     0.900000E-01   1.00800           0
     11408 MEMB     92       PMPG     H8S      HAL2     0.900000E-01   1.00800           0
     11409 MEMB     92       PMPG     C29      CG3RC1  -0.900000E-01   12.0110           0
     11410 MEMB     92       PMPG     H9R      HGA1     0.900000E-01   1.00800           0
     11411 MEMB     92       PMPG     C217     CG3C31  -0.180000       12.0110           0
     11412 MEMB     92       PMPG     H17R     HGA2     0.900000E-01   1.00800           0
     11413 MEMB     92       PMPG     H17S     HGA2     0.900000E-01   1.00800           0
     11414 MEMB     92       PMPG     C210     CG3RC1  -0.900000E-01   12.0110           0
     11415 MEMB     92       PMPG     H10R     HGA1     0.900000E-01   1.00800           0
     11416 MEMB     92       PMPG     C211     CTL2    -0.180000       12.0110           0
     11417 MEMB     92       PMPG     H11R     HAL2     0.900000E-01   1.00800           0
     11418 MEMB     92       PMPG     H11S     HAL2     0.900000E-01   1.00800           0
     11419 MEMB     92       PMPG     C212     CTL2    -0.180000       12.0110           0
     11420 MEMB     92       PMPG     H12R     HAL2     0.900000E-01   1.00800           0
     11421 MEMB     92       PMPG     H12S     HAL2     0.900000E-01   1.00800           0
     11422 MEMB     92       PMPG     C213     CTL2    -0.180000       12.0110           0
     11423 MEMB     92       PMPG     H13R     HAL2     0.900000E-01   1.00800           0
     11424 MEMB     92       PMPG     H13S     HAL2     0.900000E-01   1.00800           0
     11425 MEMB     92       PMPG     C214     CTL2    -0.180000       12.0110           0
     11426 MEMB     92       PMPG     H14R     HAL2     0.900000E-01   1.00800           0
     11427 MEMB     92       PMPG     H14S     HAL2     0.900000E-01   1.00800           0
     11428 MEMB     92       PMPG     C215     CTL2    -0.180000       12.0110           0
     11429 MEMB     92       PMPG     H15R     HAL2     0.900000E-01   1.00800           0
     11430 MEMB     92       PMPG     H15S     HAL2     0.900000E-01   1.00800           0
     11431 MEMB     92       PMPG     C216     CTL3    -0.270000       12.0110           0
     11432 MEMB     92       PMPG     H16R     HAL3     0.900000E-01   1.00800           0
     11433 MEMB     92       PMPG     H16S     HAL3     0.900000E-01   1.00800           0
     11434 MEMB     92       PMPG     H16T     HAL3     0.900000E-01   1.00800           0
     11435 MEMB     92       PMPG     C33      CTL2    -0.180000       12.0110           0
     11436 MEMB     92       PMPG     H3X      HAL2     0.900000E-01   1.00800           0
     11437 MEMB     92       PMPG     H3Y      HAL2     0.900000E-01   1.00800           0
     11438 MEMB     92       PMPG     C34      CTL2    -0.180000       12.0110           0
     11439 MEMB     92       PMPG     H4X      HAL2     0.900000E-01   1.00800           0
     11440 MEMB     92       PMPG     H4Y      HAL2     0.900000E-01   1.00800           0
     11441 MEMB     92       PMPG     C35      CTL2    -0.180000       12.0110           0
     11442 MEMB     92       PMPG     H5X      HAL2     0.900000E-01   1.00800           0
     11443 MEMB     92       PMPG     H5Y      HAL2     0.900000E-01   1.00800           0
     11444 MEMB     92       PMPG     C36      CTL2    -0.180000       12.0110           0
     11445 MEMB     92       PMPG     H6X      HAL2     0.900000E-01   1.00800           0
     11446 MEMB     92       PMPG     H6Y      HAL2     0.900000E-01   1.00800           0
     11447 MEMB     92       PMPG     C37      CTL2    -0.180000       12.0110           0
     11448 MEMB     92       PMPG     H7X      HAL2     0.900000E-01   1.00800           0
     11449 MEMB     92       PMPG     H7Y      HAL2     0.900000E-01   1.00800           0
     11450 MEMB     92       PMPG     C38      CTL2    -0.180000       12.0110           0
     11451 MEMB     92       PMPG     H8X      HAL2     0.900000E-01   1.00800           0
     11452 MEMB     92       PMPG     H8Y      HAL2     0.900000E-01   1.00800           0
     11453 MEMB     92       PMPG     C39      CTL2    -0.180000       12.0110           0
     11454 MEMB     92       PMPG     H9X      HAL2     0.900000E-01   1.00800           0
     11455 MEMB     92       PMPG     H9Y      HAL2     0.900000E-01   1.00800           0
     11456 MEMB     92       PMPG     C310     CTL2    -0.180000       12.0110           0
     11457 MEMB     92       PMPG     H10X     HAL2     0.900000E-01   1.00800           0
     11458 MEMB     92       PMPG     H10Y     HAL2     0.900000E-01   1.00800           0
     11459 MEMB     92       PMPG     C311     CTL2    -0.180000       12.0110           0
     11460 MEMB     92       PMPG     H11X     HAL2     0.900000E-01   1.00800           0
     11461 MEMB     92       PMPG     H11Y     HAL2     0.900000E-01   1.00800           0
     11462 MEMB     92       PMPG     C312     CTL2    -0.180000       12.0110           0
     11463 MEMB     92       PMPG     H12X     HAL2     0.900000E-01   1.00800           0
     11464 MEMB     92       PMPG     H12Y     HAL2     0.900000E-01   1.00800           0
     11465 MEMB     92       PMPG     C313     CTL2    -0.180000       12.0110           0
     11466 MEMB     92       PMPG     H13X     HAL2     0.900000E-01   1.00800           0
     11467 MEMB     92       PMPG     H13Y     HAL2     0.900000E-01   1.00800           0
     11468 MEMB     92       PMPG     C314     CTL2    -0.180000       12.0110           0
     11469 MEMB     92       PMPG     H14X     HAL2     0.900000E-01   1.00800           0
     11470 MEMB     92       PMPG     H14Y     HAL2     0.900000E-01   1.00800           0
     11471 MEMB     92       PMPG     C315     CTL2    -0.180000       12.0110           0
     11472 MEMB     92       PMPG     H15X     HAL2     0.900000E-01   1.00800           0
     11473 MEMB     92       PMPG     H15Y     HAL2     0.900000E-01   1.00800           0
     11474 MEMB     92       PMPG     C316     CTL3    -0.270000       12.0110           0
     11475 MEMB     92       PMPG     H16X     HAL3     0.900000E-01   1.00800           0
     11476 MEMB     92       PMPG     H16Y     HAL3     0.900000E-01   1.00800           0
     11477 MEMB     92       PMPG     H16Z     HAL3     0.900000E-01   1.00800           0
     11478 MEMB     93       PMPE     N        NH3L    -0.300000       14.0070           0
     11479 MEMB     93       PMPE     HN1      HCL      0.330000       1.00800           0
     11480 MEMB     93       PMPE     HN2      HCL      0.330000       1.00800           0
     11481 MEMB     93       PMPE     HN3      HCL      0.330000       1.00800           0
     11482 MEMB     93       PMPE     C12      CTL2     0.130000       12.0110           0
     11483 MEMB     93       PMPE     H12A     HAL2     0.900000E-01   1.00800           0
     11484 MEMB     93       PMPE     H12B     HAL2     0.900000E-01   1.00800           0
     11485 MEMB     93       PMPE     C11      CTL2    -0.800000E-01   12.0110           0
     11486 MEMB     93       PMPE     H11A     HAL2     0.900000E-01   1.00800           0
     11487 MEMB     93       PMPE     H11B     HAL2     0.900000E-01   1.00800           0
     11488 MEMB     93       PMPE     P        PL        1.50000       30.9740           0
     11489 MEMB     93       PMPE     O13      O2L     -0.780000       15.9994           0
     11490 MEMB     93       PMPE     O14      O2L     -0.780000       15.9994           0
     11491 MEMB     93       PMPE     O11      OSLP    -0.570000       15.9994           0
     11492 MEMB     93       PMPE     O12      OSLP    -0.570000       15.9994           0
     11493 MEMB     93       PMPE     C1       CTL2    -0.800000E-01   12.0110           0
     11494 MEMB     93       PMPE     HA       HAL2     0.900000E-01   1.00800           0
     11495 MEMB     93       PMPE     HB       HAL2     0.900000E-01   1.00800           0
     11496 MEMB     93       PMPE     C2       CTL1     0.170000       12.0110           0
     11497 MEMB     93       PMPE     HS       HAL1     0.900000E-01   1.00800           0
     11498 MEMB     93       PMPE     O21      OSL     -0.490000       15.9994           0
     11499 MEMB     93       PMPE     C21      CL       0.900000       12.0110           0
     11500 MEMB     93       PMPE     O22      OBL     -0.630000       15.9994           0
     11501 MEMB     93       PMPE     C22      CTL2    -0.220000       12.0110           0
     11502 MEMB     93       PMPE     H2R      HAL2     0.900000E-01   1.00800           0
     11503 MEMB     93       PMPE     H2S      HAL2     0.900000E-01   1.00800           0
     11504 MEMB     93       PMPE     C3       CTL2     0.800000E-01   12.0110           0
     11505 MEMB     93       PMPE     HX       HAL2     0.900000E-01   1.00800           0
     11506 MEMB     93       PMPE     HY       HAL2     0.900000E-01   1.00800           0
     11507 MEMB     93       PMPE     O31      OSL     -0.490000       15.9994           0
     11508 MEMB     93       PMPE     C31      CL       0.900000       12.0110           0
     11509 MEMB     93       PMPE     O32      OBL     -0.630000       15.9994           0
     11510 MEMB     93       PMPE     C32      CTL2    -0.220000       12.0110           0
     11511 MEMB     93       PMPE     H2X      HAL2     0.900000E-01   1.00800           0
     11512 MEMB     93       PMPE     H2Y      HAL2     0.900000E-01   1.00800           0
     11513 MEMB     93       PMPE     C23      CTL2    -0.180000       12.0110           0
     11514 MEMB     93       PMPE     H3R      HAL2     0.900000E-01   1.00800           0
     11515 MEMB     93       PMPE     H3S      HAL2     0.900000E-01   1.00800           0
     11516 MEMB     93       PMPE     C24      CTL2    -0.180000       12.0110           0
     11517 MEMB     93       PMPE     H4R      HAL2     0.900000E-01   1.00800           0
     11518 MEMB     93       PMPE     H4S      HAL2     0.900000E-01   1.00800           0
     11519 MEMB     93       PMPE     C25      CTL2    -0.180000       12.0110           0
     11520 MEMB     93       PMPE     H5R      HAL2     0.900000E-01   1.00800           0
     11521 MEMB     93       PMPE     H5S      HAL2     0.900000E-01   1.00800           0
     11522 MEMB     93       PMPE     C26      CTL2    -0.180000       12.0110           0
     11523 MEMB     93       PMPE     H6R      HAL2     0.900000E-01   1.00800           0
     11524 MEMB     93       PMPE     H6S      HAL2     0.900000E-01   1.00800           0
     11525 MEMB     93       PMPE     C27      CTL2    -0.180000       12.0110           0
     11526 MEMB     93       PMPE     H7R      HAL2     0.900000E-01   1.00800           0
     11527 MEMB     93       PMPE     H7S      HAL2     0.900000E-01   1.00800           0
     11528 MEMB     93       PMPE     C28      CTL2    -0.180000       12.0110           0
     11529 MEMB     93       PMPE     H8R      HAL2     0.900000E-01   1.00800           0
     11530 MEMB     93       PMPE     H8S      HAL2     0.900000E-01   1.00800           0
     11531 MEMB     93       PMPE     C29      CG3RC1  -0.900000E-01   12.0110           0
     11532 MEMB     93       PMPE     H9R      HGA1     0.900000E-01   1.00800           0
     11533 MEMB     93       PMPE     C217     CG3C31  -0.180000       12.0110           0
     11534 MEMB     93       PMPE     H17R     HGA2     0.900000E-01   1.00800           0
     11535 MEMB     93       PMPE     H17S     HGA2     0.900000E-01   1.00800           0
     11536 MEMB     93       PMPE     C210     CG3RC1  -0.900000E-01   12.0110           0
     11537 MEMB     93       PMPE     H10R     HGA1     0.900000E-01   1.00800           0
     11538 MEMB     93       PMPE     C211     CTL2    -0.180000       12.0110           0
     11539 MEMB     93       PMPE     H11R     HAL2     0.900000E-01   1.00800           0
     11540 MEMB     93       PMPE     H11S     HAL2     0.900000E-01   1.00800           0
     11541 MEMB     93       PMPE     C212     CTL2    -0.180000       12.0110           0
     11542 MEMB     93       PMPE     H12R     HAL2     0.900000E-01   1.00800           0
     11543 MEMB     93       PMPE     H12S     HAL2     0.900000E-01   1.00800           0
     11544 MEMB     93       PMPE     C213     CTL2    -0.180000       12.0110           0
     11545 MEMB     93       PMPE     H13R     HAL2     0.900000E-01   1.00800           0
     11546 MEMB     93       PMPE     H13S     HAL2     0.900000E-01   1.00800           0
     11547 MEMB     93       PMPE     C214     CTL2    -0.180000       12.0110           0
     11548 MEMB     93       PMPE     H14R     HAL2     0.900000E-01   1.00800           0
     11549 MEMB     93       PMPE     H14S     HAL2     0.900000E-01   1.00800           0
     11550 MEMB     93       PMPE     C215     CTL2    -0.180000       12.0110           0
     11551 MEMB     93       PMPE     H15R     HAL2     0.900000E-01   1.00800           0
     11552 MEMB     93       PMPE     H15S     HAL2     0.900000E-01   1.00800           0
     11553 MEMB     93       PMPE     C216     CTL3    -0.270000       12.0110           0
     11554 MEMB     93       PMPE     H16R     HAL3     0.900000E-01   1.00800           0
     11555 MEMB     93       PMPE     H16S     HAL3     0.900000E-01   1.00800           0
     11556 MEMB     93       PMPE     H16T     HAL3     0.900000E-01   1.00800           0
     11557 MEMB     93       PMPE     C33      CTL2    -0.180000       12.0110           0
     11558 MEMB     93       PMPE     H3X      HAL2     0.900000E-01   1.00800           0
     11559 MEMB     93       PMPE     H3Y      HAL2     0.900000E-01   1.00800           0
     11560 MEMB     93       PMPE     C34      CTL2    -0.180000       12.0110           0
     11561 MEMB     93       PMPE     H4X      HAL2     0.900000E-01   1.00800           0
     11562 MEMB     93       PMPE     H4Y      HAL2     0.900000E-01   1.00800           0
     11563 MEMB     93       PMPE     C35      CTL2    -0.180000       12.0110           0
     11564 MEMB     93       PMPE     H5X      HAL2     0.900000E-01   1.00800           0
     11565 MEMB     93       PMPE     H5Y      HAL2     0.900000E-01   1.00800           0
     11566 MEMB     93       PMPE     C36      CTL2    -0.180000       12.0110           0
     11567 MEMB     93       PMPE     H6X      HAL2     0.900000E-01   1.00800           0
     11568 MEMB     93       PMPE     H6Y      HAL2     0.900000E-01   1.00800           0
     11569 MEMB     93       PMPE     C37      CTL2    -0.180000       12.0110           0
     11570 MEMB     93       PMPE     H7X      HAL2     0.900000E-01   1.00800           0
     11571 MEMB     93       PMPE     H7Y      HAL2     0.900000E-01   1.00800           0
     11572 MEMB     93       PMPE     C38      CTL2    -0.180000       12.0110           0
     11573 MEMB     93       PMPE     H8X      HAL2     0.900000E-01   1.00800           0
     11574 MEMB     93       PMPE     H8Y      HAL2     0.900000E-01   1.00800           0
     11575 MEMB     93       PMPE     C39      CTL2    -0.180000       12.0110           0
     11576 MEMB     93       PMPE     H9X      HAL2     0.900000E-01   1.00800           0
     11577 MEMB     93       PMPE     H9Y      HAL2     0.900000E-01   1.00800           0
     11578 MEMB     93       PMPE     C310     CTL2    -0.180000       12.0110           0
     11579 MEMB     93       PMPE     H10X     HAL2     0.900000E-01   1.00800           0
     11580 MEMB     93       PMPE     H10Y     HAL2     0.900000E-01   1.00800           0
     11581 MEMB     93       PMPE     C311     CTL2    -0.180000       12.0110           0
     11582 MEMB     93       PMPE     H11X     HAL2     0.900000E-01   1.00800           0
     11583 MEMB     93       PMPE     H11Y     HAL2     0.900000E-01   1.00800           0
     11584 MEMB     93       PMPE     C312     CTL2    -0.180000       12.0110           0
     11585 MEMB     93       PMPE     H12X     HAL2     0.900000E-01   1.00800           0
     11586 MEMB     93       PMPE     H12Y     HAL2     0.900000E-01   1.00800           0
     11587 MEMB     93       PMPE     C313     CTL2    -0.180000       12.0110           0
     11588 MEMB     93       PMPE     H13X     HAL2     0.900000E-01   1.00800           0
     11589 MEMB     93       PMPE     H13Y     HAL2     0.900000E-01   1.00800           0
     11590 MEMB     93       PMPE     C314     CTL2    -0.180000       12.0110           0
     11591 MEMB     93       PMPE     H14X     HAL2     0.900000E-01   1.00800           0
     11592 MEMB     93       PMPE     H14Y     HAL2     0.900000E-01   1.00800           0
     11593 MEMB     93       PMPE     C315     CTL2    -0.180000       12.0110           0
     11594 MEMB     93       PMPE     H15X     HAL2     0.900000E-01   1.00800           0
     11595 MEMB     93       PMPE     H15Y     HAL2     0.900000E-01   1.00800           0
     11596 MEMB     93       PMPE     C316     CTL3    -0.270000       12.0110           0
     11597 MEMB     93       PMPE     H16X     HAL3     0.900000E-01   1.00800           0
     11598 MEMB     93       PMPE     H16Y     HAL3     0.900000E-01   1.00800           0
     11599 MEMB     93       PMPE     H16Z     HAL3     0.900000E-01   1.00800           0
     11600 MEMB     94       PMPE     N        NH3L    -0.300000       14.0070           0
     11601 MEMB     94       PMPE     HN1      HCL      0.330000       1.00800           0
     11602 MEMB     94       PMPE     HN2      HCL      0.330000       1.00800           0
     11603 MEMB     94       PMPE     HN3      HCL      0.330000       1.00800           0
     11604 MEMB     94       PMPE     C12      CTL2     0.130000       12.0110           0
     11605 MEMB     94       PMPE     H12A     HAL2     0.900000E-01   1.00800           0
     11606 MEMB     94       PMPE     H12B     HAL2     0.900000E-01   1.00800           0
     11607 MEMB     94       PMPE     C11      CTL2    -0.800000E-01   12.0110           0
     11608 MEMB     94       PMPE     H11A     HAL2     0.900000E-01   1.00800           0
     11609 MEMB     94       PMPE     H11B     HAL2     0.900000E-01   1.00800           0
     11610 MEMB     94       PMPE     P        PL        1.50000       30.9740           0
     11611 MEMB     94       PMPE     O13      O2L     -0.780000       15.9994           0
     11612 MEMB     94       PMPE     O14      O2L     -0.780000       15.9994           0
     11613 MEMB     94       PMPE     O11      OSLP    -0.570000       15.9994           0
     11614 MEMB     94       PMPE     O12      OSLP    -0.570000       15.9994           0
     11615 MEMB     94       PMPE     C1       CTL2    -0.800000E-01   12.0110           0
     11616 MEMB     94       PMPE     HA       HAL2     0.900000E-01   1.00800           0
     11617 MEMB     94       PMPE     HB       HAL2     0.900000E-01   1.00800           0
     11618 MEMB     94       PMPE     C2       CTL1     0.170000       12.0110           0
     11619 MEMB     94       PMPE     HS       HAL1     0.900000E-01   1.00800           0
     11620 MEMB     94       PMPE     O21      OSL     -0.490000       15.9994           0
     11621 MEMB     94       PMPE     C21      CL       0.900000       12.0110           0
     11622 MEMB     94       PMPE     O22      OBL     -0.630000       15.9994           0
     11623 MEMB     94       PMPE     C22      CTL2    -0.220000       12.0110           0
     11624 MEMB     94       PMPE     H2R      HAL2     0.900000E-01   1.00800           0
     11625 MEMB     94       PMPE     H2S      HAL2     0.900000E-01   1.00800           0
     11626 MEMB     94       PMPE     C3       CTL2     0.800000E-01   12.0110           0
     11627 MEMB     94       PMPE     HX       HAL2     0.900000E-01   1.00800           0
     11628 MEMB     94       PMPE     HY       HAL2     0.900000E-01   1.00800           0
     11629 MEMB     94       PMPE     O31      OSL     -0.490000       15.9994           0
     11630 MEMB     94       PMPE     C31      CL       0.900000       12.0110           0
     11631 MEMB     94       PMPE     O32      OBL     -0.630000       15.9994           0
     11632 MEMB     94       PMPE     C32      CTL2    -0.220000       12.0110           0
     11633 MEMB     94       PMPE     H2X      HAL2     0.900000E-01   1.00800           0
     11634 MEMB     94       PMPE     H2Y      HAL2     0.900000E-01   1.00800           0
     11635 MEMB     94       PMPE     C23      CTL2    -0.180000       12.0110           0
     11636 MEMB     94       PMPE     H3R      HAL2     0.900000E-01   1.00800           0
     11637 MEMB     94       PMPE     H3S      HAL2     0.900000E-01   1.00800           0
     11638 MEMB     94       PMPE     C24      CTL2    -0.180000       12.0110           0
     11639 MEMB     94       PMPE     H4R      HAL2     0.900000E-01   1.00800           0
     11640 MEMB     94       PMPE     H4S      HAL2     0.900000E-01   1.00800           0
     11641 MEMB     94       PMPE     C25      CTL2    -0.180000       12.0110           0
     11642 MEMB     94       PMPE     H5R      HAL2     0.900000E-01   1.00800           0
     11643 MEMB     94       PMPE     H5S      HAL2     0.900000E-01   1.00800           0
     11644 MEMB     94       PMPE     C26      CTL2    -0.180000       12.0110           0
     11645 MEMB     94       PMPE     H6R      HAL2     0.900000E-01   1.00800           0
     11646 MEMB     94       PMPE     H6S      HAL2     0.900000E-01   1.00800           0
     11647 MEMB     94       PMPE     C27      CTL2    -0.180000       12.0110           0
     11648 MEMB     94       PMPE     H7R      HAL2     0.900000E-01   1.00800           0
     11649 MEMB     94       PMPE     H7S      HAL2     0.900000E-01   1.00800           0
     11650 MEMB     94       PMPE     C28      CTL2    -0.180000       12.0110           0
     11651 MEMB     94       PMPE     H8R      HAL2     0.900000E-01   1.00800           0
     11652 MEMB     94       PMPE     H8S      HAL2     0.900000E-01   1.00800           0
     11653 MEMB     94       PMPE     C29      CG3RC1  -0.900000E-01   12.0110           0
     11654 MEMB     94       PMPE     H9R      HGA1     0.900000E-01   1.00800           0
     11655 MEMB     94       PMPE     C217     CG3C31  -0.180000       12.0110           0
     11656 MEMB     94       PMPE     H17R     HGA2     0.900000E-01   1.00800           0
     11657 MEMB     94       PMPE     H17S     HGA2     0.900000E-01   1.00800           0
     11658 MEMB     94       PMPE     C210     CG3RC1  -0.900000E-01   12.0110           0
     11659 MEMB     94       PMPE     H10R     HGA1     0.900000E-01   1.00800           0
     11660 MEMB     94       PMPE     C211     CTL2    -0.180000       12.0110           0
     11661 MEMB     94       PMPE     H11R     HAL2     0.900000E-01   1.00800           0
     11662 MEMB     94       PMPE     H11S     HAL2     0.900000E-01   1.00800           0
     11663 MEMB     94       PMPE     C212     CTL2    -0.180000       12.0110           0
     11664 MEMB     94       PMPE     H12R     HAL2     0.900000E-01   1.00800           0
     11665 MEMB     94       PMPE     H12S     HAL2     0.900000E-01   1.00800           0
     11666 MEMB     94       PMPE     C213     CTL2    -0.180000       12.0110           0
     11667 MEMB     94       PMPE     H13R     HAL2     0.900000E-01   1.00800           0
     11668 MEMB     94       PMPE     H13S     HAL2     0.900000E-01   1.00800           0
     11669 MEMB     94       PMPE     C214     CTL2    -0.180000       12.0110           0
     11670 MEMB     94       PMPE     H14R     HAL2     0.900000E-01   1.00800           0
     11671 MEMB     94       PMPE     H14S     HAL2     0.900000E-01   1.00800           0
     11672 MEMB     94       PMPE     C215     CTL2    -0.180000       12.0110           0
     11673 MEMB     94       PMPE     H15R     HAL2     0.900000E-01   1.00800           0
     11674 MEMB     94       PMPE     H15S     HAL2     0.900000E-01   1.00800           0
     11675 MEMB     94       PMPE     C216     CTL3    -0.270000       12.0110           0
     11676 MEMB     94       PMPE     H16R     HAL3     0.900000E-01   1.00800           0
     11677 MEMB     94       PMPE     H16S     HAL3     0.900000E-01   1.00800           0
     11678 MEMB     94       PMPE     H16T     HAL3     0.900000E-01   1.00800           0
     11679 MEMB     94       PMPE     C33      CTL2    -0.180000       12.0110           0
     11680 MEMB     94       PMPE     H3X      HAL2     0.900000E-01   1.00800           0
     11681 MEMB     94       PMPE     H3Y      HAL2     0.900000E-01   1.00800           0
     11682 MEMB     94       PMPE     C34      CTL2    -0.180000       12.0110           0
     11683 MEMB     94       PMPE     H4X      HAL2     0.900000E-01   1.00800           0
     11684 MEMB     94       PMPE     H4Y      HAL2     0.900000E-01   1.00800           0
     11685 MEMB     94       PMPE     C35      CTL2    -0.180000       12.0110           0
     11686 MEMB     94       PMPE     H5X      HAL2     0.900000E-01   1.00800           0
     11687 MEMB     94       PMPE     H5Y      HAL2     0.900000E-01   1.00800           0
     11688 MEMB     94       PMPE     C36      CTL2    -0.180000       12.0110           0
     11689 MEMB     94       PMPE     H6X      HAL2     0.900000E-01   1.00800           0
     11690 MEMB     94       PMPE     H6Y      HAL2     0.900000E-01   1.00800           0
     11691 MEMB     94       PMPE     C37      CTL2    -0.180000       12.0110           0
     11692 MEMB     94       PMPE     H7X      HAL2     0.900000E-01   1.00800           0
     11693 MEMB     94       PMPE     H7Y      HAL2     0.900000E-01   1.00800           0
     11694 MEMB     94       PMPE     C38      CTL2    -0.180000       12.0110           0
     11695 MEMB     94       PMPE     H8X      HAL2     0.900000E-01   1.00800           0
     11696 MEMB     94       PMPE     H8Y      HAL2     0.900000E-01   1.00800           0
     11697 MEMB     94       PMPE     C39      CTL2    -0.180000       12.0110           0
     11698 MEMB     94       PMPE     H9X      HAL2     0.900000E-01   1.00800           0
     11699 MEMB     94       PMPE     H9Y      HAL2     0.900000E-01   1.00800           0
     11700 MEMB     94       PMPE     C310     CTL2    -0.180000       12.0110           0
     11701 MEMB     94       PMPE     H10X     HAL2     0.900000E-01   1.00800           0
     11702 MEMB     94       PMPE     H10Y     HAL2     0.900000E-01   1.00800           0
     11703 MEMB     94       PMPE     C311     CTL2    -0.180000       12.0110           0
     11704 MEMB     94       PMPE     H11X     HAL2     0.900000E-01   1.00800           0
     11705 MEMB     94       PMPE     H11Y     HAL2     0.900000E-01   1.00800           0
     11706 MEMB     94       PMPE     C312     CTL2    -0.180000       12.0110           0
     11707 MEMB     94       PMPE     H12X     HAL2     0.900000E-01   1.00800           0
     11708 MEMB     94       PMPE     H12Y     HAL2     0.900000E-01   1.00800           0
     11709 MEMB     94       PMPE     C313     CTL2    -0.180000       12.0110           0
     11710 MEMB     94       PMPE     H13X     HAL2     0.900000E-01   1.00800           0
     11711 MEMB     94       PMPE     H13Y     HAL2     0.900000E-01   1.00800           0
     11712 MEMB     94       PMPE     C314     CTL2    -0.180000       12.0110           0
     11713 MEMB     94       PMPE     H14X     HAL2     0.900000E-01   1.00800           0
     11714 MEMB     94       PMPE     H14Y     HAL2     0.900000E-01   1.00800           0
     11715 MEMB     94       PMPE     C315     CTL2    -0.180000       12.0110           0
     11716 MEMB     94       PMPE     H15X     HAL2     0.900000E-01   1.00800           0
     11717 MEMB     94       PMPE     H15Y     HAL2     0.900000E-01   1.00800           0
     11718 MEMB     94       PMPE     C316     CTL3    -0.270000       12.0110           0
     11719 MEMB     94       PMPE     H16X     HAL3     0.900000E-01   1.00800           0
     11720 MEMB     94       PMPE     H16Y     HAL3     0.900000E-01   1.00800           0
     11721 MEMB     94       PMPE     H16Z     HAL3     0.900000E-01   1.00800           0
     11722 MEMB     95       PMPE     N        NH3L    -0.300000       14.0070           0
     11723 MEMB     95       PMPE     HN1      HCL      0.330000       1.00800           0
     11724 MEMB     95       PMPE     HN2      HCL      0.330000       1.00800           0
     11725 MEMB     95       PMPE     HN3      HCL      0.330000       1.00800           0
     11726 MEMB     95       PMPE     C12      CTL2     0.130000       12.0110           0
     11727 MEMB     95       PMPE     H12A     HAL2     0.900000E-01   1.00800           0
     11728 MEMB     95       PMPE     H12B     HAL2     0.900000E-01   1.00800           0
     11729 MEMB     95       PMPE     C11      CTL2    -0.800000E-01   12.0110           0
     11730 MEMB     95       PMPE     H11A     HAL2     0.900000E-01   1.00800           0
     11731 MEMB     95       PMPE     H11B     HAL2     0.900000E-01   1.00800           0
     11732 MEMB     95       PMPE     P        PL        1.50000       30.9740           0
     11733 MEMB     95       PMPE     O13      O2L     -0.780000       15.9994           0
     11734 MEMB     95       PMPE     O14      O2L     -0.780000       15.9994           0
     11735 MEMB     95       PMPE     O11      OSLP    -0.570000       15.9994           0
     11736 MEMB     95       PMPE     O12      OSLP    -0.570000       15.9994           0
     11737 MEMB     95       PMPE     C1       CTL2    -0.800000E-01   12.0110           0
     11738 MEMB     95       PMPE     HA       HAL2     0.900000E-01   1.00800           0
     11739 MEMB     95       PMPE     HB       HAL2     0.900000E-01   1.00800           0
     11740 MEMB     95       PMPE     C2       CTL1     0.170000       12.0110           0
     11741 MEMB     95       PMPE     HS       HAL1     0.900000E-01   1.00800           0
     11742 MEMB     95       PMPE     O21      OSL     -0.490000       15.9994           0
     11743 MEMB     95       PMPE     C21      CL       0.900000       12.0110           0
     11744 MEMB     95       PMPE     O22      OBL     -0.630000       15.9994           0
     11745 MEMB     95       PMPE     C22      CTL2    -0.220000       12.0110           0
     11746 MEMB     95       PMPE     H2R      HAL2     0.900000E-01   1.00800           0
     11747 MEMB     95       PMPE     H2S      HAL2     0.900000E-01   1.00800           0
     11748 MEMB     95       PMPE     C3       CTL2     0.800000E-01   12.0110           0
     11749 MEMB     95       PMPE     HX       HAL2     0.900000E-01   1.00800           0
     11750 MEMB     95       PMPE     HY       HAL2     0.900000E-01   1.00800           0
     11751 MEMB     95       PMPE     O31      OSL     -0.490000       15.9994           0
     11752 MEMB     95       PMPE     C31      CL       0.900000       12.0110           0
     11753 MEMB     95       PMPE     O32      OBL     -0.630000       15.9994           0
     11754 MEMB     95       PMPE     C32      CTL2    -0.220000       12.0110           0
     11755 MEMB     95       PMPE     H2X      HAL2     0.900000E-01   1.00800           0
     11756 MEMB     95       PMPE     H2Y      HAL2     0.900000E-01   1.00800           0
     11757 MEMB     95       PMPE     C23      CTL2    -0.180000       12.0110           0
     11758 MEMB     95       PMPE     H3R      HAL2     0.900000E-01   1.00800           0
     11759 MEMB     95       PMPE     H3S      HAL2     0.900000E-01   1.00800           0
     11760 MEMB     95       PMPE     C24      CTL2    -0.180000       12.0110           0
     11761 MEMB     95       PMPE     H4R      HAL2     0.900000E-01   1.00800           0
     11762 MEMB     95       PMPE     H4S      HAL2     0.900000E-01   1.00800           0
     11763 MEMB     95       PMPE     C25      CTL2    -0.180000       12.0110           0
     11764 MEMB     95       PMPE     H5R      HAL2     0.900000E-01   1.00800           0
     11765 MEMB     95       PMPE     H5S      HAL2     0.900000E-01   1.00800           0
     11766 MEMB     95       PMPE     C26      CTL2    -0.180000       12.0110           0
     11767 MEMB     95       PMPE     H6R      HAL2     0.900000E-01   1.00800           0
     11768 MEMB     95       PMPE     H6S      HAL2     0.900000E-01   1.00800           0
     11769 MEMB     95       PMPE     C27      CTL2    -0.180000       12.0110           0
     11770 MEMB     95       PMPE     H7R      HAL2     0.900000E-01   1.00800           0
     11771 MEMB     95       PMPE     H7S      HAL2     0.900000E-01   1.00800           0
     11772 MEMB     95       PMPE     C28      CTL2    -0.180000       12.0110           0
     11773 MEMB     95       PMPE     H8R      HAL2     0.900000E-01   1.00800           0
     11774 MEMB     95       PMPE     H8S      HAL2     0.900000E-01   1.00800           0
     11775 MEMB     95       PMPE     C29      CG3RC1  -0.900000E-01   12.0110           0
     11776 MEMB     95       PMPE     H9R      HGA1     0.900000E-01   1.00800           0
     11777 MEMB     95       PMPE     C217     CG3C31  -0.180000       12.0110           0
     11778 MEMB     95       PMPE     H17R     HGA2     0.900000E-01   1.00800           0
     11779 MEMB     95       PMPE     H17S     HGA2     0.900000E-01   1.00800           0
     11780 MEMB     95       PMPE     C210     CG3RC1  -0.900000E-01   12.0110           0
     11781 MEMB     95       PMPE     H10R     HGA1     0.900000E-01   1.00800           0
     11782 MEMB     95       PMPE     C211     CTL2    -0.180000       12.0110           0
     11783 MEMB     95       PMPE     H11R     HAL2     0.900000E-01   1.00800           0
     11784 MEMB     95       PMPE     H11S     HAL2     0.900000E-01   1.00800           0
     11785 MEMB     95       PMPE     C212     CTL2    -0.180000       12.0110           0
     11786 MEMB     95       PMPE     H12R     HAL2     0.900000E-01   1.00800           0
     11787 MEMB     95       PMPE     H12S     HAL2     0.900000E-01   1.00800           0
     11788 MEMB     95       PMPE     C213     CTL2    -0.180000       12.0110           0
     11789 MEMB     95       PMPE     H13R     HAL2     0.900000E-01   1.00800           0
     11790 MEMB     95       PMPE     H13S     HAL2     0.900000E-01   1.00800           0
     11791 MEMB     95       PMPE     C214     CTL2    -0.180000       12.0110           0
     11792 MEMB     95       PMPE     H14R     HAL2     0.900000E-01   1.00800           0
     11793 MEMB     95       PMPE     H14S     HAL2     0.900000E-01   1.00800           0
     11794 MEMB     95       PMPE     C215     CTL2    -0.180000       12.0110           0
     11795 MEMB     95       PMPE     H15R     HAL2     0.900000E-01   1.00800           0
     11796 MEMB     95       PMPE     H15S     HAL2     0.900000E-01   1.00800           0
     11797 MEMB     95       PMPE     C216     CTL3    -0.270000       12.0110           0
     11798 MEMB     95       PMPE     H16R     HAL3     0.900000E-01   1.00800           0
     11799 MEMB     95       PMPE     H16S     HAL3     0.900000E-01   1.00800           0
     11800 MEMB     95       PMPE     H16T     HAL3     0.900000E-01   1.00800           0
     11801 MEMB     95       PMPE     C33      CTL2    -0.180000       12.0110           0
     11802 MEMB     95       PMPE     H3X      HAL2     0.900000E-01   1.00800           0
     11803 MEMB     95       PMPE     H3Y      HAL2     0.900000E-01   1.00800           0
     11804 MEMB     95       PMPE     C34      CTL2    -0.180000       12.0110           0
     11805 MEMB     95       PMPE     H4X      HAL2     0.900000E-01   1.00800           0
     11806 MEMB     95       PMPE     H4Y      HAL2     0.900000E-01   1.00800           0
     11807 MEMB     95       PMPE     C35      CTL2    -0.180000       12.0110           0
     11808 MEMB     95       PMPE     H5X      HAL2     0.900000E-01   1.00800           0
     11809 MEMB     95       PMPE     H5Y      HAL2     0.900000E-01   1.00800           0
     11810 MEMB     95       PMPE     C36      CTL2    -0.180000       12.0110           0
     11811 MEMB     95       PMPE     H6X      HAL2     0.900000E-01   1.00800           0
     11812 MEMB     95       PMPE     H6Y      HAL2     0.900000E-01   1.00800           0
     11813 MEMB     95       PMPE     C37      CTL2    -0.180000       12.0110           0
     11814 MEMB     95       PMPE     H7X      HAL2     0.900000E-01   1.00800           0
     11815 MEMB     95       PMPE     H7Y      HAL2     0.900000E-01   1.00800           0
     11816 MEMB     95       PMPE     C38      CTL2    -0.180000       12.0110           0
     11817 MEMB     95       PMPE     H8X      HAL2     0.900000E-01   1.00800           0
     11818 MEMB     95       PMPE     H8Y      HAL2     0.900000E-01   1.00800           0
     11819 MEMB     95       PMPE     C39      CTL2    -0.180000       12.0110           0
     11820 MEMB     95       PMPE     H9X      HAL2     0.900000E-01   1.00800           0
     11821 MEMB     95       PMPE     H9Y      HAL2     0.900000E-01   1.00800           0
     11822 MEMB     95       PMPE     C310     CTL2    -0.180000       12.0110           0
     11823 MEMB     95       PMPE     H10X     HAL2     0.900000E-01   1.00800           0
     11824 MEMB     95       PMPE     H10Y     HAL2     0.900000E-01   1.00800           0
     11825 MEMB     95       PMPE     C311     CTL2    -0.180000       12.0110           0
     11826 MEMB     95       PMPE     H11X     HAL2     0.900000E-01   1.00800           0
     11827 MEMB     95       PMPE     H11Y     HAL2     0.900000E-01   1.00800           0
     11828 MEMB     95       PMPE     C312     CTL2    -0.180000       12.0110           0
     11829 MEMB     95       PMPE     H12X     HAL2     0.900000E-01   1.00800           0
     11830 MEMB     95       PMPE     H12Y     HAL2     0.900000E-01   1.00800           0
     11831 MEMB     95       PMPE     C313     CTL2    -0.180000       12.0110           0
     11832 MEMB     95       PMPE     H13X     HAL2     0.900000E-01   1.00800           0
     11833 MEMB     95       PMPE     H13Y     HAL2     0.900000E-01   1.00800           0
     11834 MEMB     95       PMPE     C314     CTL2    -0.180000       12.0110           0
     11835 MEMB     95       PMPE     H14X     HAL2     0.900000E-01   1.00800           0
     11836 MEMB     95       PMPE     H14Y     HAL2     0.900000E-01   1.00800           0
     11837 MEMB     95       PMPE     C315     CTL2    -0.180000       12.0110           0
     11838 MEMB     95       PMPE     H15X     HAL2     0.900000E-01   1.00800           0
     11839 MEMB     95       PMPE     H15Y     HAL2     0.900000E-01   1.00800           0
     11840 MEMB     95       PMPE     C316     CTL3    -0.270000       12.0110           0
     11841 MEMB     95       PMPE     H16X     HAL3     0.900000E-01   1.00800           0
     11842 MEMB     95       PMPE     H16Y     HAL3     0.900000E-01   1.00800           0
     11843 MEMB     95       PMPE     H16Z     HAL3     0.900000E-01   1.00800           0
     11844 MEMB     96       POPE     N        NH3L    -0.300000       14.0070           0
     11845 MEMB     96       POPE     HN1      HCL      0.330000       1.00800           0
     11846 MEMB     96       POPE     HN2      HCL      0.330000       1.00800           0
     11847 MEMB     96       POPE     HN3      HCL      0.330000       1.00800           0
     11848 MEMB     96       POPE     C12      CTL2     0.130000       12.0110           0
     11849 MEMB     96       POPE     H12A     HAL2     0.900000E-01   1.00800           0
     11850 MEMB     96       POPE     H12B     HAL2     0.900000E-01   1.00800           0
     11851 MEMB     96       POPE     C11      CTL2    -0.800000E-01   12.0110           0
     11852 MEMB     96       POPE     H11A     HAL2     0.900000E-01   1.00800           0
     11853 MEMB     96       POPE     H11B     HAL2     0.900000E-01   1.00800           0
     11854 MEMB     96       POPE     P        PL        1.50000       30.9740           0
     11855 MEMB     96       POPE     O13      O2L     -0.780000       15.9994           0
     11856 MEMB     96       POPE     O14      O2L     -0.780000       15.9994           0
     11857 MEMB     96       POPE     O11      OSLP    -0.570000       15.9994           0
     11858 MEMB     96       POPE     O12      OSLP    -0.570000       15.9994           0
     11859 MEMB     96       POPE     C1       CTL2    -0.800000E-01   12.0110           0
     11860 MEMB     96       POPE     HA       HAL2     0.900000E-01   1.00800           0
     11861 MEMB     96       POPE     HB       HAL2     0.900000E-01   1.00800           0
     11862 MEMB     96       POPE     C2       CTL1     0.170000       12.0110           0
     11863 MEMB     96       POPE     HS       HAL1     0.900000E-01   1.00800           0
     11864 MEMB     96       POPE     O21      OSL     -0.490000       15.9994           0
     11865 MEMB     96       POPE     C21      CL       0.900000       12.0110           0
     11866 MEMB     96       POPE     O22      OBL     -0.630000       15.9994           0
     11867 MEMB     96       POPE     C22      CTL2    -0.220000       12.0110           0
     11868 MEMB     96       POPE     H2R      HAL2     0.900000E-01   1.00800           0
     11869 MEMB     96       POPE     H2S      HAL2     0.900000E-01   1.00800           0
     11870 MEMB     96       POPE     C3       CTL2     0.800000E-01   12.0110           0
     11871 MEMB     96       POPE     HX       HAL2     0.900000E-01   1.00800           0
     11872 MEMB     96       POPE     HY       HAL2     0.900000E-01   1.00800           0
     11873 MEMB     96       POPE     O31      OSL     -0.490000       15.9994           0
     11874 MEMB     96       POPE     C31      CL       0.900000       12.0110           0
     11875 MEMB     96       POPE     O32      OBL     -0.630000       15.9994           0
     11876 MEMB     96       POPE     C32      CTL2    -0.220000       12.0110           0
     11877 MEMB     96       POPE     H2X      HAL2     0.900000E-01   1.00800           0
     11878 MEMB     96       POPE     H2Y      HAL2     0.900000E-01   1.00800           0
     11879 MEMB     96       POPE     C23      CTL2    -0.180000       12.0110           0
     11880 MEMB     96       POPE     H3R      HAL2     0.900000E-01   1.00800           0
     11881 MEMB     96       POPE     H3S      HAL2     0.900000E-01   1.00800           0
     11882 MEMB     96       POPE     C24      CTL2    -0.180000       12.0110           0
     11883 MEMB     96       POPE     H4R      HAL2     0.900000E-01   1.00800           0
     11884 MEMB     96       POPE     H4S      HAL2     0.900000E-01   1.00800           0
     11885 MEMB     96       POPE     C25      CTL2    -0.180000       12.0110           0
     11886 MEMB     96       POPE     H5R      HAL2     0.900000E-01   1.00800           0
     11887 MEMB     96       POPE     H5S      HAL2     0.900000E-01   1.00800           0
     11888 MEMB     96       POPE     C26      CTL2    -0.180000       12.0110           0
     11889 MEMB     96       POPE     H6R      HAL2     0.900000E-01   1.00800           0
     11890 MEMB     96       POPE     H6S      HAL2     0.900000E-01   1.00800           0
     11891 MEMB     96       POPE     C27      CTL2    -0.180000       12.0110           0
     11892 MEMB     96       POPE     H7R      HAL2     0.900000E-01   1.00800           0
     11893 MEMB     96       POPE     H7S      HAL2     0.900000E-01   1.00800           0
     11894 MEMB     96       POPE     C28      CTL2    -0.180000       12.0110           0
     11895 MEMB     96       POPE     H8R      HAL2     0.900000E-01   1.00800           0
     11896 MEMB     96       POPE     H8S      HAL2     0.900000E-01   1.00800           0
     11897 MEMB     96       POPE     C29      CEL1    -0.150000       12.0110           0
     11898 MEMB     96       POPE     H91      HEL1     0.150000       1.00800           0
     11899 MEMB     96       POPE     C210     CEL1    -0.150000       12.0110           0
     11900 MEMB     96       POPE     H101     HEL1     0.150000       1.00800           0
     11901 MEMB     96       POPE     C211     CTL2    -0.180000       12.0110           0
     11902 MEMB     96       POPE     H11R     HAL2     0.900000E-01   1.00800           0
     11903 MEMB     96       POPE     H11S     HAL2     0.900000E-01   1.00800           0
     11904 MEMB     96       POPE     C212     CTL2    -0.180000       12.0110           0
     11905 MEMB     96       POPE     H12R     HAL2     0.900000E-01   1.00800           0
     11906 MEMB     96       POPE     H12S     HAL2     0.900000E-01   1.00800           0
     11907 MEMB     96       POPE     C213     CTL2    -0.180000       12.0110           0
     11908 MEMB     96       POPE     H13R     HAL2     0.900000E-01   1.00800           0
     11909 MEMB     96       POPE     H13S     HAL2     0.900000E-01   1.00800           0
     11910 MEMB     96       POPE     C214     CTL2    -0.180000       12.0110           0
     11911 MEMB     96       POPE     H14R     HAL2     0.900000E-01   1.00800           0
     11912 MEMB     96       POPE     H14S     HAL2     0.900000E-01   1.00800           0
     11913 MEMB     96       POPE     C215     CTL2    -0.180000       12.0110           0
     11914 MEMB     96       POPE     H15R     HAL2     0.900000E-01   1.00800           0
     11915 MEMB     96       POPE     H15S     HAL2     0.900000E-01   1.00800           0
     11916 MEMB     96       POPE     C216     CTL2    -0.180000       12.0110           0
     11917 MEMB     96       POPE     H16R     HAL2     0.900000E-01   1.00800           0
     11918 MEMB     96       POPE     H16S     HAL2     0.900000E-01   1.00800           0
     11919 MEMB     96       POPE     C217     CTL2    -0.180000       12.0110           0
     11920 MEMB     96       POPE     H17R     HAL2     0.900000E-01   1.00800           0
     11921 MEMB     96       POPE     H17S     HAL2     0.900000E-01   1.00800           0
     11922 MEMB     96       POPE     C218     CTL3    -0.270000       12.0110           0
     11923 MEMB     96       POPE     H18R     HAL3     0.900000E-01   1.00800           0
     11924 MEMB     96       POPE     H18S     HAL3     0.900000E-01   1.00800           0
     11925 MEMB     96       POPE     H18T     HAL3     0.900000E-01   1.00800           0
     11926 MEMB     96       POPE     C33      CTL2    -0.180000       12.0110           0
     11927 MEMB     96       POPE     H3X      HAL2     0.900000E-01   1.00800           0
     11928 MEMB     96       POPE     H3Y      HAL2     0.900000E-01   1.00800           0
     11929 MEMB     96       POPE     C34      CTL2    -0.180000       12.0110           0
     11930 MEMB     96       POPE     H4X      HAL2     0.900000E-01   1.00800           0
     11931 MEMB     96       POPE     H4Y      HAL2     0.900000E-01   1.00800           0
     11932 MEMB     96       POPE     C35      CTL2    -0.180000       12.0110           0
     11933 MEMB     96       POPE     H5X      HAL2     0.900000E-01   1.00800           0
     11934 MEMB     96       POPE     H5Y      HAL2     0.900000E-01   1.00800           0
     11935 MEMB     96       POPE     C36      CTL2    -0.180000       12.0110           0
     11936 MEMB     96       POPE     H6X      HAL2     0.900000E-01   1.00800           0
     11937 MEMB     96       POPE     H6Y      HAL2     0.900000E-01   1.00800           0
     11938 MEMB     96       POPE     C37      CTL2    -0.180000       12.0110           0
     11939 MEMB     96       POPE     H7X      HAL2     0.900000E-01   1.00800           0
     11940 MEMB     96       POPE     H7Y      HAL2     0.900000E-01   1.00800           0
     11941 MEMB     96       POPE     C38      CTL2    -0.180000       12.0110           0
     11942 MEMB     96       POPE     H8X      HAL2     0.900000E-01   1.00800           0
     11943 MEMB     96       POPE     H8Y      HAL2     0.900000E-01   1.00800           0
     11944 MEMB     96       POPE     C39      CTL2    -0.180000       12.0110           0
     11945 MEMB     96       POPE     H9X      HAL2     0.900000E-01   1.00800           0
     11946 MEMB     96       POPE     H9Y      HAL2     0.900000E-01   1.00800           0
     11947 MEMB     96       POPE     C310     CTL2    -0.180000       12.0110           0
     11948 MEMB     96       POPE     H10X     HAL2     0.900000E-01   1.00800           0
     11949 MEMB     96       POPE     H10Y     HAL2     0.900000E-01   1.00800           0
     11950 MEMB     96       POPE     C311     CTL2    -0.180000       12.0110           0
     11951 MEMB     96       POPE     H11X     HAL2     0.900000E-01   1.00800           0
     11952 MEMB     96       POPE     H11Y     HAL2     0.900000E-01   1.00800           0
     11953 MEMB     96       POPE     C312     CTL2    -0.180000       12.0110           0
     11954 MEMB     96       POPE     H12X     HAL2     0.900000E-01   1.00800           0
     11955 MEMB     96       POPE     H12Y     HAL2     0.900000E-01   1.00800           0
     11956 MEMB     96       POPE     C313     CTL2    -0.180000       12.0110           0
     11957 MEMB     96       POPE     H13X     HAL2     0.900000E-01   1.00800           0
     11958 MEMB     96       POPE     H13Y     HAL2     0.900000E-01   1.00800           0
     11959 MEMB     96       POPE     C314     CTL2    -0.180000       12.0110           0
     11960 MEMB     96       POPE     H14X     HAL2     0.900000E-01   1.00800           0
     11961 MEMB     96       POPE     H14Y     HAL2     0.900000E-01   1.00800           0
     11962 MEMB     96       POPE     C315     CTL2    -0.180000       12.0110           0
     11963 MEMB     96       POPE     H15X     HAL2     0.900000E-01   1.00800           0
     11964 MEMB     96       POPE     H15Y     HAL2     0.900000E-01   1.00800           0
     11965 MEMB     96       POPE     C316     CTL3    -0.270000       12.0110           0
     11966 MEMB     96       POPE     H16X     HAL3     0.900000E-01   1.00800           0
     11967 MEMB     96       POPE     H16Y     HAL3     0.900000E-01   1.00800           0
     11968 MEMB     96       POPE     H16Z     HAL3     0.900000E-01   1.00800           0
     11969 MEMB     97       PMPE     N        NH3L    -0.300000       14.0070           0
     11970 MEMB     97       PMPE     HN1      HCL      0.330000       1.00800           0
     11971 MEMB     97       PMPE     HN2      HCL      0.330000       1.00800           0
     11972 MEMB     97       PMPE     HN3      HCL      0.330000       1.00800           0
     11973 MEMB     97       PMPE     C12      CTL2     0.130000       12.0110           0
     11974 MEMB     97       PMPE     H12A     HAL2     0.900000E-01   1.00800           0
     11975 MEMB     97       PMPE     H12B     HAL2     0.900000E-01   1.00800           0
     11976 MEMB     97       PMPE     C11      CTL2    -0.800000E-01   12.0110           0
     11977 MEMB     97       PMPE     H11A     HAL2     0.900000E-01   1.00800           0
     11978 MEMB     97       PMPE     H11B     HAL2     0.900000E-01   1.00800           0
     11979 MEMB     97       PMPE     P        PL        1.50000       30.9740           0
     11980 MEMB     97       PMPE     O13      O2L     -0.780000       15.9994           0
     11981 MEMB     97       PMPE     O14      O2L     -0.780000       15.9994           0
     11982 MEMB     97       PMPE     O11      OSLP    -0.570000       15.9994           0
     11983 MEMB     97       PMPE     O12      OSLP    -0.570000       15.9994           0
     11984 MEMB     97       PMPE     C1       CTL2    -0.800000E-01   12.0110           0
     11985 MEMB     97       PMPE     HA       HAL2     0.900000E-01   1.00800           0
     11986 MEMB     97       PMPE     HB       HAL2     0.900000E-01   1.00800           0
     11987 MEMB     97       PMPE     C2       CTL1     0.170000       12.0110           0
     11988 MEMB     97       PMPE     HS       HAL1     0.900000E-01   1.00800           0
     11989 MEMB     97       PMPE     O21      OSL     -0.490000       15.9994           0
     11990 MEMB     97       PMPE     C21      CL       0.900000       12.0110           0
     11991 MEMB     97       PMPE     O22      OBL     -0.630000       15.9994           0
     11992 MEMB     97       PMPE     C22      CTL2    -0.220000       12.0110           0
     11993 MEMB     97       PMPE     H2R      HAL2     0.900000E-01   1.00800           0
     11994 MEMB     97       PMPE     H2S      HAL2     0.900000E-01   1.00800           0
     11995 MEMB     97       PMPE     C3       CTL2     0.800000E-01   12.0110           0
     11996 MEMB     97       PMPE     HX       HAL2     0.900000E-01   1.00800           0
     11997 MEMB     97       PMPE     HY       HAL2     0.900000E-01   1.00800           0
     11998 MEMB     97       PMPE     O31      OSL     -0.490000       15.9994           0
     11999 MEMB     97       PMPE     C31      CL       0.900000       12.0110           0
     12000 MEMB     97       PMPE     O32      OBL     -0.630000       15.9994           0
     12001 MEMB     97       PMPE     C32      CTL2    -0.220000       12.0110           0
     12002 MEMB     97       PMPE     H2X      HAL2     0.900000E-01   1.00800           0
     12003 MEMB     97       PMPE     H2Y      HAL2     0.900000E-01   1.00800           0
     12004 MEMB     97       PMPE     C23      CTL2    -0.180000       12.0110           0
     12005 MEMB     97       PMPE     H3R      HAL2     0.900000E-01   1.00800           0
     12006 MEMB     97       PMPE     H3S      HAL2     0.900000E-01   1.00800           0
     12007 MEMB     97       PMPE     C24      CTL2    -0.180000       12.0110           0
     12008 MEMB     97       PMPE     H4R      HAL2     0.900000E-01   1.00800           0
     12009 MEMB     97       PMPE     H4S      HAL2     0.900000E-01   1.00800           0
     12010 MEMB     97       PMPE     C25      CTL2    -0.180000       12.0110           0
     12011 MEMB     97       PMPE     H5R      HAL2     0.900000E-01   1.00800           0
     12012 MEMB     97       PMPE     H5S      HAL2     0.900000E-01   1.00800           0
     12013 MEMB     97       PMPE     C26      CTL2    -0.180000       12.0110           0
     12014 MEMB     97       PMPE     H6R      HAL2     0.900000E-01   1.00800           0
     12015 MEMB     97       PMPE     H6S      HAL2     0.900000E-01   1.00800           0
     12016 MEMB     97       PMPE     C27      CTL2    -0.180000       12.0110           0
     12017 MEMB     97       PMPE     H7R      HAL2     0.900000E-01   1.00800           0
     12018 MEMB     97       PMPE     H7S      HAL2     0.900000E-01   1.00800           0
     12019 MEMB     97       PMPE     C28      CTL2    -0.180000       12.0110           0
     12020 MEMB     97       PMPE     H8R      HAL2     0.900000E-01   1.00800           0
     12021 MEMB     97       PMPE     H8S      HAL2     0.900000E-01   1.00800           0
     12022 MEMB     97       PMPE     C29      CG3RC1  -0.900000E-01   12.0110           0
     12023 MEMB     97       PMPE     H9R      HGA1     0.900000E-01   1.00800           0
     12024 MEMB     97       PMPE     C217     CG3C31  -0.180000       12.0110           0
     12025 MEMB     97       PMPE     H17R     HGA2     0.900000E-01   1.00800           0
     12026 MEMB     97       PMPE     H17S     HGA2     0.900000E-01   1.00800           0
     12027 MEMB     97       PMPE     C210     CG3RC1  -0.900000E-01   12.0110           0
     12028 MEMB     97       PMPE     H10R     HGA1     0.900000E-01   1.00800           0
     12029 MEMB     97       PMPE     C211     CTL2    -0.180000       12.0110           0
     12030 MEMB     97       PMPE     H11R     HAL2     0.900000E-01   1.00800           0
     12031 MEMB     97       PMPE     H11S     HAL2     0.900000E-01   1.00800           0
     12032 MEMB     97       PMPE     C212     CTL2    -0.180000       12.0110           0
     12033 MEMB     97       PMPE     H12R     HAL2     0.900000E-01   1.00800           0
     12034 MEMB     97       PMPE     H12S     HAL2     0.900000E-01   1.00800           0
     12035 MEMB     97       PMPE     C213     CTL2    -0.180000       12.0110           0
     12036 MEMB     97       PMPE     H13R     HAL2     0.900000E-01   1.00800           0
     12037 MEMB     97       PMPE     H13S     HAL2     0.900000E-01   1.00800           0
     12038 MEMB     97       PMPE     C214     CTL2    -0.180000       12.0110           0
     12039 MEMB     97       PMPE     H14R     HAL2     0.900000E-01   1.00800           0
     12040 MEMB     97       PMPE     H14S     HAL2     0.900000E-01   1.00800           0
     12041 MEMB     97       PMPE     C215     CTL2    -0.180000       12.0110           0
     12042 MEMB     97       PMPE     H15R     HAL2     0.900000E-01   1.00800           0
     12043 MEMB     97       PMPE     H15S     HAL2     0.900000E-01   1.00800           0
     12044 MEMB     97       PMPE     C216     CTL3    -0.270000       12.0110           0
     12045 MEMB     97       PMPE     H16R     HAL3     0.900000E-01   1.00800           0
     12046 MEMB     97       PMPE     H16S     HAL3     0.900000E-01   1.00800           0
     12047 MEMB     97       PMPE     H16T     HAL3     0.900000E-01   1.00800           0
     12048 MEMB     97       PMPE     C33      CTL2    -0.180000       12.0110           0
     12049 MEMB     97       PMPE     H3X      HAL2     0.900000E-01   1.00800           0
     12050 MEMB     97       PMPE     H3Y      HAL2     0.900000E-01   1.00800           0
     12051 MEMB     97       PMPE     C34      CTL2    -0.180000       12.0110           0
     12052 MEMB     97       PMPE     H4X      HAL2     0.900000E-01   1.00800           0
     12053 MEMB     97       PMPE     H4Y      HAL2     0.900000E-01   1.00800           0
     12054 MEMB     97       PMPE     C35      CTL2    -0.180000       12.0110           0
     12055 MEMB     97       PMPE     H5X      HAL2     0.900000E-01   1.00800           0
     12056 MEMB     97       PMPE     H5Y      HAL2     0.900000E-01   1.00800           0
     12057 MEMB     97       PMPE     C36      CTL2    -0.180000       12.0110           0
     12058 MEMB     97       PMPE     H6X      HAL2     0.900000E-01   1.00800           0
     12059 MEMB     97       PMPE     H6Y      HAL2     0.900000E-01   1.00800           0
     12060 MEMB     97       PMPE     C37      CTL2    -0.180000       12.0110           0
     12061 MEMB     97       PMPE     H7X      HAL2     0.900000E-01   1.00800           0
     12062 MEMB     97       PMPE     H7Y      HAL2     0.900000E-01   1.00800           0
     12063 MEMB     97       PMPE     C38      CTL2    -0.180000       12.0110           0
     12064 MEMB     97       PMPE     H8X      HAL2     0.900000E-01   1.00800           0
     12065 MEMB     97       PMPE     H8Y      HAL2     0.900000E-01   1.00800           0
     12066 MEMB     97       PMPE     C39      CTL2    -0.180000       12.0110           0
     12067 MEMB     97       PMPE     H9X      HAL2     0.900000E-01   1.00800           0
     12068 MEMB     97       PMPE     H9Y      HAL2     0.900000E-01   1.00800           0
     12069 MEMB     97       PMPE     C310     CTL2    -0.180000       12.0110           0
     12070 MEMB     97       PMPE     H10X     HAL2     0.900000E-01   1.00800           0
     12071 MEMB     97       PMPE     H10Y     HAL2     0.900000E-01   1.00800           0
     12072 MEMB     97       PMPE     C311     CTL2    -0.180000       12.0110           0
     12073 MEMB     97       PMPE     H11X     HAL2     0.900000E-01   1.00800           0
     12074 MEMB     97       PMPE     H11Y     HAL2     0.900000E-01   1.00800           0
     12075 MEMB     97       PMPE     C312     CTL2    -0.180000       12.0110           0
     12076 MEMB     97       PMPE     H12X     HAL2     0.900000E-01   1.00800           0
     12077 MEMB     97       PMPE     H12Y     HAL2     0.900000E-01   1.00800           0
     12078 MEMB     97       PMPE     C313     CTL2    -0.180000       12.0110           0
     12079 MEMB     97       PMPE     H13X     HAL2     0.900000E-01   1.00800           0
     12080 MEMB     97       PMPE     H13Y     HAL2     0.900000E-01   1.00800           0
     12081 MEMB     97       PMPE     C314     CTL2    -0.180000       12.0110           0
     12082 MEMB     97       PMPE     H14X     HAL2     0.900000E-01   1.00800           0
     12083 MEMB     97       PMPE     H14Y     HAL2     0.900000E-01   1.00800           0
     12084 MEMB     97       PMPE     C315     CTL2    -0.180000       12.0110           0
     12085 MEMB     97       PMPE     H15X     HAL2     0.900000E-01   1.00800           0
     12086 MEMB     97       PMPE     H15Y     HAL2     0.900000E-01   1.00800           0
     12087 MEMB     97       PMPE     C316     CTL3    -0.270000       12.0110           0
     12088 MEMB     97       PMPE     H16X     HAL3     0.900000E-01   1.00800           0
     12089 MEMB     97       PMPE     H16Y     HAL3     0.900000E-01   1.00800           0
     12090 MEMB     97       PMPE     H16Z     HAL3     0.900000E-01   1.00800           0
     12091 MEMB     98       PMPG     C13      CTL2     0.500000E-01   12.0110           0
     12092 MEMB     98       PMPG     H13A     HAL2     0.900000E-01   1.00800           0
     12093 MEMB     98       PMPG     H13B     HAL2     0.900000E-01   1.00800           0
     12094 MEMB     98       PMPG     OC3      OHL     -0.660000       15.9994           0
     12095 MEMB     98       PMPG     HO3      HOL      0.430000       1.00800           0
     12096 MEMB     98       PMPG     C12      CTL1     0.140000       12.0110           0
     12097 MEMB     98       PMPG     H12A     HAL1     0.900000E-01   1.00800           0
     12098 MEMB     98       PMPG     OC2      OHL     -0.660000       15.9994           0
     12099 MEMB     98       PMPG     HO2      HOL      0.430000       1.00800           0
     12100 MEMB     98       PMPG     C11      CTL2    -0.800000E-01   12.0110           0
     12101 MEMB     98       PMPG     H11A     HAL2     0.900000E-01   1.00800           0
     12102 MEMB     98       PMPG     H11B     HAL2     0.900000E-01   1.00800           0
     12103 MEMB     98       PMPG     P        PL        1.50000       30.9740           0
     12104 MEMB     98       PMPG     O13      O2L     -0.780000       15.9994           0
     12105 MEMB     98       PMPG     O14      O2L     -0.780000       15.9994           0
     12106 MEMB     98       PMPG     O11      OSLP    -0.570000       15.9994           0
     12107 MEMB     98       PMPG     O12      OSLP    -0.570000       15.9994           0
     12108 MEMB     98       PMPG     C1       CTL2    -0.800000E-01   12.0110           0
     12109 MEMB     98       PMPG     HA       HAL2     0.900000E-01   1.00800           0
     12110 MEMB     98       PMPG     HB       HAL2     0.900000E-01   1.00800           0
     12111 MEMB     98       PMPG     C2       CTL1     0.170000       12.0110           0
     12112 MEMB     98       PMPG     HS       HAL1     0.900000E-01   1.00800           0
     12113 MEMB     98       PMPG     O21      OSL     -0.490000       15.9994           0
     12114 MEMB     98       PMPG     C21      CL       0.900000       12.0110           0
     12115 MEMB     98       PMPG     O22      OBL     -0.630000       15.9994           0
     12116 MEMB     98       PMPG     C22      CTL2    -0.220000       12.0110           0
     12117 MEMB     98       PMPG     H2R      HAL2     0.900000E-01   1.00800           0
     12118 MEMB     98       PMPG     H2S      HAL2     0.900000E-01   1.00800           0
     12119 MEMB     98       PMPG     C3       CTL2     0.800000E-01   12.0110           0
     12120 MEMB     98       PMPG     HX       HAL2     0.900000E-01   1.00800           0
     12121 MEMB     98       PMPG     HY       HAL2     0.900000E-01   1.00800           0
     12122 MEMB     98       PMPG     O31      OSL     -0.490000       15.9994           0
     12123 MEMB     98       PMPG     C31      CL       0.900000       12.0110           0
     12124 MEMB     98       PMPG     O32      OBL     -0.630000       15.9994           0
     12125 MEMB     98       PMPG     C32      CTL2    -0.220000       12.0110           0
     12126 MEMB     98       PMPG     H2X      HAL2     0.900000E-01   1.00800           0
     12127 MEMB     98       PMPG     H2Y      HAL2     0.900000E-01   1.00800           0
     12128 MEMB     98       PMPG     C23      CTL2    -0.180000       12.0110           0
     12129 MEMB     98       PMPG     H3R      HAL2     0.900000E-01   1.00800           0
     12130 MEMB     98       PMPG     H3S      HAL2     0.900000E-01   1.00800           0
     12131 MEMB     98       PMPG     C24      CTL2    -0.180000       12.0110           0
     12132 MEMB     98       PMPG     H4R      HAL2     0.900000E-01   1.00800           0
     12133 MEMB     98       PMPG     H4S      HAL2     0.900000E-01   1.00800           0
     12134 MEMB     98       PMPG     C25      CTL2    -0.180000       12.0110           0
     12135 MEMB     98       PMPG     H5R      HAL2     0.900000E-01   1.00800           0
     12136 MEMB     98       PMPG     H5S      HAL2     0.900000E-01   1.00800           0
     12137 MEMB     98       PMPG     C26      CTL2    -0.180000       12.0110           0
     12138 MEMB     98       PMPG     H6R      HAL2     0.900000E-01   1.00800           0
     12139 MEMB     98       PMPG     H6S      HAL2     0.900000E-01   1.00800           0
     12140 MEMB     98       PMPG     C27      CTL2    -0.180000       12.0110           0
     12141 MEMB     98       PMPG     H7R      HAL2     0.900000E-01   1.00800           0
     12142 MEMB     98       PMPG     H7S      HAL2     0.900000E-01   1.00800           0
     12143 MEMB     98       PMPG     C28      CTL2    -0.180000       12.0110           0
     12144 MEMB     98       PMPG     H8R      HAL2     0.900000E-01   1.00800           0
     12145 MEMB     98       PMPG     H8S      HAL2     0.900000E-01   1.00800           0
     12146 MEMB     98       PMPG     C29      CG3RC1  -0.900000E-01   12.0110           0
     12147 MEMB     98       PMPG     H9R      HGA1     0.900000E-01   1.00800           0
     12148 MEMB     98       PMPG     C217     CG3C31  -0.180000       12.0110           0
     12149 MEMB     98       PMPG     H17R     HGA2     0.900000E-01   1.00800           0
     12150 MEMB     98       PMPG     H17S     HGA2     0.900000E-01   1.00800           0
     12151 MEMB     98       PMPG     C210     CG3RC1  -0.900000E-01   12.0110           0
     12152 MEMB     98       PMPG     H10R     HGA1     0.900000E-01   1.00800           0
     12153 MEMB     98       PMPG     C211     CTL2    -0.180000       12.0110           0
     12154 MEMB     98       PMPG     H11R     HAL2     0.900000E-01   1.00800           0
     12155 MEMB     98       PMPG     H11S     HAL2     0.900000E-01   1.00800           0
     12156 MEMB     98       PMPG     C212     CTL2    -0.180000       12.0110           0
     12157 MEMB     98       PMPG     H12R     HAL2     0.900000E-01   1.00800           0
     12158 MEMB     98       PMPG     H12S     HAL2     0.900000E-01   1.00800           0
     12159 MEMB     98       PMPG     C213     CTL2    -0.180000       12.0110           0
     12160 MEMB     98       PMPG     H13R     HAL2     0.900000E-01   1.00800           0
     12161 MEMB     98       PMPG     H13S     HAL2     0.900000E-01   1.00800           0
     12162 MEMB     98       PMPG     C214     CTL2    -0.180000       12.0110           0
     12163 MEMB     98       PMPG     H14R     HAL2     0.900000E-01   1.00800           0
     12164 MEMB     98       PMPG     H14S     HAL2     0.900000E-01   1.00800           0
     12165 MEMB     98       PMPG     C215     CTL2    -0.180000       12.0110           0
     12166 MEMB     98       PMPG     H15R     HAL2     0.900000E-01   1.00800           0
     12167 MEMB     98       PMPG     H15S     HAL2     0.900000E-01   1.00800           0
     12168 MEMB     98       PMPG     C216     CTL3    -0.270000       12.0110           0
     12169 MEMB     98       PMPG     H16R     HAL3     0.900000E-01   1.00800           0
     12170 MEMB     98       PMPG     H16S     HAL3     0.900000E-01   1.00800           0
     12171 MEMB     98       PMPG     H16T     HAL3     0.900000E-01   1.00800           0
     12172 MEMB     98       PMPG     C33      CTL2    -0.180000       12.0110           0
     12173 MEMB     98       PMPG     H3X      HAL2     0.900000E-01   1.00800           0
     12174 MEMB     98       PMPG     H3Y      HAL2     0.900000E-01   1.00800           0
     12175 MEMB     98       PMPG     C34      CTL2    -0.180000       12.0110           0
     12176 MEMB     98       PMPG     H4X      HAL2     0.900000E-01   1.00800           0
     12177 MEMB     98       PMPG     H4Y      HAL2     0.900000E-01   1.00800           0
     12178 MEMB     98       PMPG     C35      CTL2    -0.180000       12.0110           0
     12179 MEMB     98       PMPG     H5X      HAL2     0.900000E-01   1.00800           0
     12180 MEMB     98       PMPG     H5Y      HAL2     0.900000E-01   1.00800           0
     12181 MEMB     98       PMPG     C36      CTL2    -0.180000       12.0110           0
     12182 MEMB     98       PMPG     H6X      HAL2     0.900000E-01   1.00800           0
     12183 MEMB     98       PMPG     H6Y      HAL2     0.900000E-01   1.00800           0
     12184 MEMB     98       PMPG     C37      CTL2    -0.180000       12.0110           0
     12185 MEMB     98       PMPG     H7X      HAL2     0.900000E-01   1.00800           0
     12186 MEMB     98       PMPG     H7Y      HAL2     0.900000E-01   1.00800           0
     12187 MEMB     98       PMPG     C38      CTL2    -0.180000       12.0110           0
     12188 MEMB     98       PMPG     H8X      HAL2     0.900000E-01   1.00800           0
     12189 MEMB     98       PMPG     H8Y      HAL2     0.900000E-01   1.00800           0
     12190 MEMB     98       PMPG     C39      CTL2    -0.180000       12.0110           0
     12191 MEMB     98       PMPG     H9X      HAL2     0.900000E-01   1.00800           0
     12192 MEMB     98       PMPG     H9Y      HAL2     0.900000E-01   1.00800           0
     12193 MEMB     98       PMPG     C310     CTL2    -0.180000       12.0110           0
     12194 MEMB     98       PMPG     H10X     HAL2     0.900000E-01   1.00800           0
     12195 MEMB     98       PMPG     H10Y     HAL2     0.900000E-01   1.00800           0
     12196 MEMB     98       PMPG     C311     CTL2    -0.180000       12.0110           0
     12197 MEMB     98       PMPG     H11X     HAL2     0.900000E-01   1.00800           0
     12198 MEMB     98       PMPG     H11Y     HAL2     0.900000E-01   1.00800           0
     12199 MEMB     98       PMPG     C312     CTL2    -0.180000       12.0110           0
     12200 MEMB     98       PMPG     H12X     HAL2     0.900000E-01   1.00800           0
     12201 MEMB     98       PMPG     H12Y     HAL2     0.900000E-01   1.00800           0
     12202 MEMB     98       PMPG     C313     CTL2    -0.180000       12.0110           0
     12203 MEMB     98       PMPG     H13X     HAL2     0.900000E-01   1.00800           0
     12204 MEMB     98       PMPG     H13Y     HAL2     0.900000E-01   1.00800           0
     12205 MEMB     98       PMPG     C314     CTL2    -0.180000       12.0110           0
     12206 MEMB     98       PMPG     H14X     HAL2     0.900000E-01   1.00800           0
     12207 MEMB     98       PMPG     H14Y     HAL2     0.900000E-01   1.00800           0
     12208 MEMB     98       PMPG     C315     CTL2    -0.180000       12.0110           0
     12209 MEMB     98       PMPG     H15X     HAL2     0.900000E-01   1.00800           0
     12210 MEMB     98       PMPG     H15Y     HAL2     0.900000E-01   1.00800           0
     12211 MEMB     98       PMPG     C316     CTL3    -0.270000       12.0110           0
     12212 MEMB     98       PMPG     H16X     HAL3     0.900000E-01   1.00800           0
     12213 MEMB     98       PMPG     H16Y     HAL3     0.900000E-01   1.00800           0
     12214 MEMB     98       PMPG     H16Z     HAL3     0.900000E-01   1.00800           0
     12215 MEMB     99       PMPE     N        NH3L    -0.300000       14.0070           0
     12216 MEMB     99       PMPE     HN1      HCL      0.330000       1.00800           0
     12217 MEMB     99       PMPE     HN2      HCL      0.330000       1.00800           0
     12218 MEMB     99       PMPE     HN3      HCL      0.330000       1.00800           0
     12219 MEMB     99       PMPE     C12      CTL2     0.130000       12.0110           0
     12220 MEMB     99       PMPE     H12A     HAL2     0.900000E-01   1.00800           0
     12221 MEMB     99       PMPE     H12B     HAL2     0.900000E-01   1.00800           0
     12222 MEMB     99       PMPE     C11      CTL2    -0.800000E-01   12.0110           0
     12223 MEMB     99       PMPE     H11A     HAL2     0.900000E-01   1.00800           0
     12224 MEMB     99       PMPE     H11B     HAL2     0.900000E-01   1.00800           0
     12225 MEMB     99       PMPE     P        PL        1.50000       30.9740           0
     12226 MEMB     99       PMPE     O13      O2L     -0.780000       15.9994           0
     12227 MEMB     99       PMPE     O14      O2L     -0.780000       15.9994           0
     12228 MEMB     99       PMPE     O11      OSLP    -0.570000       15.9994           0
     12229 MEMB     99       PMPE     O12      OSLP    -0.570000       15.9994           0
     12230 MEMB     99       PMPE     C1       CTL2    -0.800000E-01   12.0110           0
     12231 MEMB     99       PMPE     HA       HAL2     0.900000E-01   1.00800           0
     12232 MEMB     99       PMPE     HB       HAL2     0.900000E-01   1.00800           0
     12233 MEMB     99       PMPE     C2       CTL1     0.170000       12.0110           0
     12234 MEMB     99       PMPE     HS       HAL1     0.900000E-01   1.00800           0
     12235 MEMB     99       PMPE     O21      OSL     -0.490000       15.9994           0
     12236 MEMB     99       PMPE     C21      CL       0.900000       12.0110           0
     12237 MEMB     99       PMPE     O22      OBL     -0.630000       15.9994           0
     12238 MEMB     99       PMPE     C22      CTL2    -0.220000       12.0110           0
     12239 MEMB     99       PMPE     H2R      HAL2     0.900000E-01   1.00800           0
     12240 MEMB     99       PMPE     H2S      HAL2     0.900000E-01   1.00800           0
     12241 MEMB     99       PMPE     C3       CTL2     0.800000E-01   12.0110           0
     12242 MEMB     99       PMPE     HX       HAL2     0.900000E-01   1.00800           0
     12243 MEMB     99       PMPE     HY       HAL2     0.900000E-01   1.00800           0
     12244 MEMB     99       PMPE     O31      OSL     -0.490000       15.9994           0
     12245 MEMB     99       PMPE     C31      CL       0.900000       12.0110           0
     12246 MEMB     99       PMPE     O32      OBL     -0.630000       15.9994           0
     12247 MEMB     99       PMPE     C32      CTL2    -0.220000       12.0110           0
     12248 MEMB     99       PMPE     H2X      HAL2     0.900000E-01   1.00800           0
     12249 MEMB     99       PMPE     H2Y      HAL2     0.900000E-01   1.00800           0
     12250 MEMB     99       PMPE     C23      CTL2    -0.180000       12.0110           0
     12251 MEMB     99       PMPE     H3R      HAL2     0.900000E-01   1.00800           0
     12252 MEMB     99       PMPE     H3S      HAL2     0.900000E-01   1.00800           0
     12253 MEMB     99       PMPE     C24      CTL2    -0.180000       12.0110           0
     12254 MEMB     99       PMPE     H4R      HAL2     0.900000E-01   1.00800           0
     12255 MEMB     99       PMPE     H4S      HAL2     0.900000E-01   1.00800           0
     12256 MEMB     99       PMPE     C25      CTL2    -0.180000       12.0110           0
     12257 MEMB     99       PMPE     H5R      HAL2     0.900000E-01   1.00800           0
     12258 MEMB     99       PMPE     H5S      HAL2     0.900000E-01   1.00800           0
     12259 MEMB     99       PMPE     C26      CTL2    -0.180000       12.0110           0
     12260 MEMB     99       PMPE     H6R      HAL2     0.900000E-01   1.00800           0
     12261 MEMB     99       PMPE     H6S      HAL2     0.900000E-01   1.00800           0
     12262 MEMB     99       PMPE     C27      CTL2    -0.180000       12.0110           0
     12263 MEMB     99       PMPE     H7R      HAL2     0.900000E-01   1.00800           0
     12264 MEMB     99       PMPE     H7S      HAL2     0.900000E-01   1.00800           0
     12265 MEMB     99       PMPE     C28      CTL2    -0.180000       12.0110           0
     12266 MEMB     99       PMPE     H8R      HAL2     0.900000E-01   1.00800           0
     12267 MEMB     99       PMPE     H8S      HAL2     0.900000E-01   1.00800           0
     12268 MEMB     99       PMPE     C29      CG3RC1  -0.900000E-01   12.0110           0
     12269 MEMB     99       PMPE     H9R      HGA1     0.900000E-01   1.00800           0
     12270 MEMB     99       PMPE     C217     CG3C31  -0.180000       12.0110           0
     12271 MEMB     99       PMPE     H17R     HGA2     0.900000E-01   1.00800           0
     12272 MEMB     99       PMPE     H17S     HGA2     0.900000E-01   1.00800           0
     12273 MEMB     99       PMPE     C210     CG3RC1  -0.900000E-01   12.0110           0
     12274 MEMB     99       PMPE     H10R     HGA1     0.900000E-01   1.00800           0
     12275 MEMB     99       PMPE     C211     CTL2    -0.180000       12.0110           0
     12276 MEMB     99       PMPE     H11R     HAL2     0.900000E-01   1.00800           0
     12277 MEMB     99       PMPE     H11S     HAL2     0.900000E-01   1.00800           0
     12278 MEMB     99       PMPE     C212     CTL2    -0.180000       12.0110           0
     12279 MEMB     99       PMPE     H12R     HAL2     0.900000E-01   1.00800           0
     12280 MEMB     99       PMPE     H12S     HAL2     0.900000E-01   1.00800           0
     12281 MEMB     99       PMPE     C213     CTL2    -0.180000       12.0110           0
     12282 MEMB     99       PMPE     H13R     HAL2     0.900000E-01   1.00800           0
     12283 MEMB     99       PMPE     H13S     HAL2     0.900000E-01   1.00800           0
     12284 MEMB     99       PMPE     C214     CTL2    -0.180000       12.0110           0
     12285 MEMB     99       PMPE     H14R     HAL2     0.900000E-01   1.00800           0
     12286 MEMB     99       PMPE     H14S     HAL2     0.900000E-01   1.00800           0
     12287 MEMB     99       PMPE     C215     CTL2    -0.180000       12.0110           0
     12288 MEMB     99       PMPE     H15R     HAL2     0.900000E-01   1.00800           0
     12289 MEMB     99       PMPE     H15S     HAL2     0.900000E-01   1.00800           0
     12290 MEMB     99       PMPE     C216     CTL3    -0.270000       12.0110           0
     12291 MEMB     99       PMPE     H16R     HAL3     0.900000E-01   1.00800           0
     12292 MEMB     99       PMPE     H16S     HAL3     0.900000E-01   1.00800           0
     12293 MEMB     99       PMPE     H16T     HAL3     0.900000E-01   1.00800           0
     12294 MEMB     99       PMPE     C33      CTL2    -0.180000       12.0110           0
     12295 MEMB     99       PMPE     H3X      HAL2     0.900000E-01   1.00800           0
     12296 MEMB     99       PMPE     H3Y      HAL2     0.900000E-01   1.00800           0
     12297 MEMB     99       PMPE     C34      CTL2    -0.180000       12.0110           0
     12298 MEMB     99       PMPE     H4X      HAL2     0.900000E-01   1.00800           0
     12299 MEMB     99       PMPE     H4Y      HAL2     0.900000E-01   1.00800           0
     12300 MEMB     99       PMPE     C35      CTL2    -0.180000       12.0110           0
     12301 MEMB     99       PMPE     H5X      HAL2     0.900000E-01   1.00800           0
     12302 MEMB     99       PMPE     H5Y      HAL2     0.900000E-01   1.00800           0
     12303 MEMB     99       PMPE     C36      CTL2    -0.180000       12.0110           0
     12304 MEMB     99       PMPE     H6X      HAL2     0.900000E-01   1.00800           0
     12305 MEMB     99       PMPE     H6Y      HAL2     0.900000E-01   1.00800           0
     12306 MEMB     99       PMPE     C37      CTL2    -0.180000       12.0110           0
     12307 MEMB     99       PMPE     H7X      HAL2     0.900000E-01   1.00800           0
     12308 MEMB     99       PMPE     H7Y      HAL2     0.900000E-01   1.00800           0
     12309 MEMB     99       PMPE     C38      CTL2    -0.180000       12.0110           0
     12310 MEMB     99       PMPE     H8X      HAL2     0.900000E-01   1.00800           0
     12311 MEMB     99       PMPE     H8Y      HAL2     0.900000E-01   1.00800           0
     12312 MEMB     99       PMPE     C39      CTL2    -0.180000       12.0110           0
     12313 MEMB     99       PMPE     H9X      HAL2     0.900000E-01   1.00800           0
     12314 MEMB     99       PMPE     H9Y      HAL2     0.900000E-01   1.00800           0
     12315 MEMB     99       PMPE     C310     CTL2    -0.180000       12.0110           0
     12316 MEMB     99       PMPE     H10X     HAL2     0.900000E-01   1.00800           0
     12317 MEMB     99       PMPE     H10Y     HAL2     0.900000E-01   1.00800           0
     12318 MEMB     99       PMPE     C311     CTL2    -0.180000       12.0110           0
     12319 MEMB     99       PMPE     H11X     HAL2     0.900000E-01   1.00800           0
     12320 MEMB     99       PMPE     H11Y     HAL2     0.900000E-01   1.00800           0
     12321 MEMB     99       PMPE     C312     CTL2    -0.180000       12.0110           0
     12322 MEMB     99       PMPE     H12X     HAL2     0.900000E-01   1.00800           0
     12323 MEMB     99       PMPE     H12Y     HAL2     0.900000E-01   1.00800           0
     12324 MEMB     99       PMPE     C313     CTL2    -0.180000       12.0110           0
     12325 MEMB     99       PMPE     H13X     HAL2     0.900000E-01   1.00800           0
     12326 MEMB     99       PMPE     H13Y     HAL2     0.900000E-01   1.00800           0
     12327 MEMB     99       PMPE     C314     CTL2    -0.180000       12.0110           0
     12328 MEMB     99       PMPE     H14X     HAL2     0.900000E-01   1.00800           0
     12329 MEMB     99       PMPE     H14Y     HAL2     0.900000E-01   1.00800           0
     12330 MEMB     99       PMPE     C315     CTL2    -0.180000       12.0110           0
     12331 MEMB     99       PMPE     H15X     HAL2     0.900000E-01   1.00800           0
     12332 MEMB     99       PMPE     H15Y     HAL2     0.900000E-01   1.00800           0
     12333 MEMB     99       PMPE     C316     CTL3    -0.270000       12.0110           0
     12334 MEMB     99       PMPE     H16X     HAL3     0.900000E-01   1.00800           0
     12335 MEMB     99       PMPE     H16Y     HAL3     0.900000E-01   1.00800           0
     12336 MEMB     99       PMPE     H16Z     HAL3     0.900000E-01   1.00800           0
     12337 MEMB     100      PMPE     N        NH3L    -0.300000       14.0070           0
     12338 MEMB     100      PMPE     HN1      HCL      0.330000       1.00800           0
     12339 MEMB     100      PMPE     HN2      HCL      0.330000       1.00800           0
     12340 MEMB     100      PMPE     HN3      HCL      0.330000       1.00800           0
     12341 MEMB     100      PMPE     C12      CTL2     0.130000       12.0110           0
     12342 MEMB     100      PMPE     H12A     HAL2     0.900000E-01   1.00800           0
     12343 MEMB     100      PMPE     H12B     HAL2     0.900000E-01   1.00800           0
     12344 MEMB     100      PMPE     C11      CTL2    -0.800000E-01   12.0110           0
     12345 MEMB     100      PMPE     H11A     HAL2     0.900000E-01   1.00800           0
     12346 MEMB     100      PMPE     H11B     HAL2     0.900000E-01   1.00800           0
     12347 MEMB     100      PMPE     P        PL        1.50000       30.9740           0
     12348 MEMB     100      PMPE     O13      O2L     -0.780000       15.9994           0
     12349 MEMB     100      PMPE     O14      O2L     -0.780000       15.9994           0
     12350 MEMB     100      PMPE     O11      OSLP    -0.570000       15.9994           0
     12351 MEMB     100      PMPE     O12      OSLP    -0.570000       15.9994           0
     12352 MEMB     100      PMPE     C1       CTL2    -0.800000E-01   12.0110           0
     12353 MEMB     100      PMPE     HA       HAL2     0.900000E-01   1.00800           0
     12354 MEMB     100      PMPE     HB       HAL2     0.900000E-01   1.00800           0
     12355 MEMB     100      PMPE     C2       CTL1     0.170000       12.0110           0
     12356 MEMB     100      PMPE     HS       HAL1     0.900000E-01   1.00800           0
     12357 MEMB     100      PMPE     O21      OSL     -0.490000       15.9994           0
     12358 MEMB     100      PMPE     C21      CL       0.900000       12.0110           0
     12359 MEMB     100      PMPE     O22      OBL     -0.630000       15.9994           0
     12360 MEMB     100      PMPE     C22      CTL2    -0.220000       12.0110           0
     12361 MEMB     100      PMPE     H2R      HAL2     0.900000E-01   1.00800           0
     12362 MEMB     100      PMPE     H2S      HAL2     0.900000E-01   1.00800           0
     12363 MEMB     100      PMPE     C3       CTL2     0.800000E-01   12.0110           0
     12364 MEMB     100      PMPE     HX       HAL2     0.900000E-01   1.00800           0
     12365 MEMB     100      PMPE     HY       HAL2     0.900000E-01   1.00800           0
     12366 MEMB     100      PMPE     O31      OSL     -0.490000       15.9994           0
     12367 MEMB     100      PMPE     C31      CL       0.900000       12.0110           0
     12368 MEMB     100      PMPE     O32      OBL     -0.630000       15.9994           0
     12369 MEMB     100      PMPE     C32      CTL2    -0.220000       12.0110           0
     12370 MEMB     100      PMPE     H2X      HAL2     0.900000E-01   1.00800           0
     12371 MEMB     100      PMPE     H2Y      HAL2     0.900000E-01   1.00800           0
     12372 MEMB     100      PMPE     C23      CTL2    -0.180000       12.0110           0
     12373 MEMB     100      PMPE     H3R      HAL2     0.900000E-01   1.00800           0
     12374 MEMB     100      PMPE     H3S      HAL2     0.900000E-01   1.00800           0
     12375 MEMB     100      PMPE     C24      CTL2    -0.180000       12.0110           0
     12376 MEMB     100      PMPE     H4R      HAL2     0.900000E-01   1.00800           0
     12377 MEMB     100      PMPE     H4S      HAL2     0.900000E-01   1.00800           0
     12378 MEMB     100      PMPE     C25      CTL2    -0.180000       12.0110           0
     12379 MEMB     100      PMPE     H5R      HAL2     0.900000E-01   1.00800           0
     12380 MEMB     100      PMPE     H5S      HAL2     0.900000E-01   1.00800           0
     12381 MEMB     100      PMPE     C26      CTL2    -0.180000       12.0110           0
     12382 MEMB     100      PMPE     H6R      HAL2     0.900000E-01   1.00800           0
     12383 MEMB     100      PMPE     H6S      HAL2     0.900000E-01   1.00800           0
     12384 MEMB     100      PMPE     C27      CTL2    -0.180000       12.0110           0
     12385 MEMB     100      PMPE     H7R      HAL2     0.900000E-01   1.00800           0
     12386 MEMB     100      PMPE     H7S      HAL2     0.900000E-01   1.00800           0
     12387 MEMB     100      PMPE     C28      CTL2    -0.180000       12.0110           0
     12388 MEMB     100      PMPE     H8R      HAL2     0.900000E-01   1.00800           0
     12389 MEMB     100      PMPE     H8S      HAL2     0.900000E-01   1.00800           0
     12390 MEMB     100      PMPE     C29      CG3RC1  -0.900000E-01   12.0110           0
     12391 MEMB     100      PMPE     H9R      HGA1     0.900000E-01   1.00800           0
     12392 MEMB     100      PMPE     C217     CG3C31  -0.180000       12.0110           0
     12393 MEMB     100      PMPE     H17R     HGA2     0.900000E-01   1.00800           0
     12394 MEMB     100      PMPE     H17S     HGA2     0.900000E-01   1.00800           0
     12395 MEMB     100      PMPE     C210     CG3RC1  -0.900000E-01   12.0110           0
     12396 MEMB     100      PMPE     H10R     HGA1     0.900000E-01   1.00800           0
     12397 MEMB     100      PMPE     C211     CTL2    -0.180000       12.0110           0
     12398 MEMB     100      PMPE     H11R     HAL2     0.900000E-01   1.00800           0
     12399 MEMB     100      PMPE     H11S     HAL2     0.900000E-01   1.00800           0
     12400 MEMB     100      PMPE     C212     CTL2    -0.180000       12.0110           0
     12401 MEMB     100      PMPE     H12R     HAL2     0.900000E-01   1.00800           0
     12402 MEMB     100      PMPE     H12S     HAL2     0.900000E-01   1.00800           0
     12403 MEMB     100      PMPE     C213     CTL2    -0.180000       12.0110           0
     12404 MEMB     100      PMPE     H13R     HAL2     0.900000E-01   1.00800           0
     12405 MEMB     100      PMPE     H13S     HAL2     0.900000E-01   1.00800           0
     12406 MEMB     100      PMPE     C214     CTL2    -0.180000       12.0110           0
     12407 MEMB     100      PMPE     H14R     HAL2     0.900000E-01   1.00800           0
     12408 MEMB     100      PMPE     H14S     HAL2     0.900000E-01   1.00800           0
     12409 MEMB     100      PMPE     C215     CTL2    -0.180000       12.0110           0
     12410 MEMB     100      PMPE     H15R     HAL2     0.900000E-01   1.00800           0
     12411 MEMB     100      PMPE     H15S     HAL2     0.900000E-01   1.00800           0
     12412 MEMB     100      PMPE     C216     CTL3    -0.270000       12.0110           0
     12413 MEMB     100      PMPE     H16R     HAL3     0.900000E-01   1.00800           0
     12414 MEMB     100      PMPE     H16S     HAL3     0.900000E-01   1.00800           0
     12415 MEMB     100      PMPE     H16T     HAL3     0.900000E-01   1.00800           0
     12416 MEMB     100      PMPE     C33      CTL2    -0.180000       12.0110           0
     12417 MEMB     100      PMPE     H3X      HAL2     0.900000E-01   1.00800           0
     12418 MEMB     100      PMPE     H3Y      HAL2     0.900000E-01   1.00800           0
     12419 MEMB     100      PMPE     C34      CTL2    -0.180000       12.0110           0
     12420 MEMB     100      PMPE     H4X      HAL2     0.900000E-01   1.00800           0
     12421 MEMB     100      PMPE     H4Y      HAL2     0.900000E-01   1.00800           0
     12422 MEMB     100      PMPE     C35      CTL2    -0.180000       12.0110           0
     12423 MEMB     100      PMPE     H5X      HAL2     0.900000E-01   1.00800           0
     12424 MEMB     100      PMPE     H5Y      HAL2     0.900000E-01   1.00800           0
     12425 MEMB     100      PMPE     C36      CTL2    -0.180000       12.0110           0
     12426 MEMB     100      PMPE     H6X      HAL2     0.900000E-01   1.00800           0
     12427 MEMB     100      PMPE     H6Y      HAL2     0.900000E-01   1.00800           0
     12428 MEMB     100      PMPE     C37      CTL2    -0.180000       12.0110           0
     12429 MEMB     100      PMPE     H7X      HAL2     0.900000E-01   1.00800           0
     12430 MEMB     100      PMPE     H7Y      HAL2     0.900000E-01   1.00800           0
     12431 MEMB     100      PMPE     C38      CTL2    -0.180000       12.0110           0
     12432 MEMB     100      PMPE     H8X      HAL2     0.900000E-01   1.00800           0
     12433 MEMB     100      PMPE     H8Y      HAL2     0.900000E-01   1.00800           0
     12434 MEMB     100      PMPE     C39      CTL2    -0.180000       12.0110           0
     12435 MEMB     100      PMPE     H9X      HAL2     0.900000E-01   1.00800           0
     12436 MEMB     100      PMPE     H9Y      HAL2     0.900000E-01   1.00800           0
     12437 MEMB     100      PMPE     C310     CTL2    -0.180000       12.0110           0
     12438 MEMB     100      PMPE     H10X     HAL2     0.900000E-01   1.00800           0
     12439 MEMB     100      PMPE     H10Y     HAL2     0.900000E-01   1.00800           0
     12440 MEMB     100      PMPE     C311     CTL2    -0.180000       12.0110           0
     12441 MEMB     100      PMPE     H11X     HAL2     0.900000E-01   1.00800           0
     12442 MEMB     100      PMPE     H11Y     HAL2     0.900000E-01   1.00800           0
     12443 MEMB     100      PMPE     C312     CTL2    -0.180000       12.0110           0
     12444 MEMB     100      PMPE     H12X     HAL2     0.900000E-01   1.00800           0
     12445 MEMB     100      PMPE     H12Y     HAL2     0.900000E-01   1.00800           0
     12446 MEMB     100      PMPE     C313     CTL2    -0.180000       12.0110           0
     12447 MEMB     100      PMPE     H13X     HAL2     0.900000E-01   1.00800           0
     12448 MEMB     100      PMPE     H13Y     HAL2     0.900000E-01   1.00800           0
     12449 MEMB     100      PMPE     C314     CTL2    -0.180000       12.0110           0
     12450 MEMB     100      PMPE     H14X     HAL2     0.900000E-01   1.00800           0
     12451 MEMB     100      PMPE     H14Y     HAL2     0.900000E-01   1.00800           0
     12452 MEMB     100      PMPE     C315     CTL2    -0.180000       12.0110           0
     12453 MEMB     100      PMPE     H15X     HAL2     0.900000E-01   1.00800           0
     12454 MEMB     100      PMPE     H15Y     HAL2     0.900000E-01   1.00800           0
     12455 MEMB     100      PMPE     C316     CTL3    -0.270000       12.0110           0
     12456 MEMB     100      PMPE     H16X     HAL3     0.900000E-01   1.00800           0
     12457 MEMB     100      PMPE     H16Y     HAL3     0.900000E-01   1.00800           0
     12458 MEMB     100      PMPE     H16Z     HAL3     0.900000E-01   1.00800           0
     12459 MEMB     101      PMPE     N        NH3L    -0.300000       14.0070           0
     12460 MEMB     101      PMPE     HN1      HCL      0.330000       1.00800           0
     12461 MEMB     101      PMPE     HN2      HCL      0.330000       1.00800           0
     12462 MEMB     101      PMPE     HN3      HCL      0.330000       1.00800           0
     12463 MEMB     101      PMPE     C12      CTL2     0.130000       12.0110           0
     12464 MEMB     101      PMPE     H12A     HAL2     0.900000E-01   1.00800           0
     12465 MEMB     101      PMPE     H12B     HAL2     0.900000E-01   1.00800           0
     12466 MEMB     101      PMPE     C11      CTL2    -0.800000E-01   12.0110           0
     12467 MEMB     101      PMPE     H11A     HAL2     0.900000E-01   1.00800           0
     12468 MEMB     101      PMPE     H11B     HAL2     0.900000E-01   1.00800           0
     12469 MEMB     101      PMPE     P        PL        1.50000       30.9740           0
     12470 MEMB     101      PMPE     O13      O2L     -0.780000       15.9994           0
     12471 MEMB     101      PMPE     O14      O2L     -0.780000       15.9994           0
     12472 MEMB     101      PMPE     O11      OSLP    -0.570000       15.9994           0
     12473 MEMB     101      PMPE     O12      OSLP    -0.570000       15.9994           0
     12474 MEMB     101      PMPE     C1       CTL2    -0.800000E-01   12.0110           0
     12475 MEMB     101      PMPE     HA       HAL2     0.900000E-01   1.00800           0
     12476 MEMB     101      PMPE     HB       HAL2     0.900000E-01   1.00800           0
     12477 MEMB     101      PMPE     C2       CTL1     0.170000       12.0110           0
     12478 MEMB     101      PMPE     HS       HAL1     0.900000E-01   1.00800           0
     12479 MEMB     101      PMPE     O21      OSL     -0.490000       15.9994           0
     12480 MEMB     101      PMPE     C21      CL       0.900000       12.0110           0
     12481 MEMB     101      PMPE     O22      OBL     -0.630000       15.9994           0
     12482 MEMB     101      PMPE     C22      CTL2    -0.220000       12.0110           0
     12483 MEMB     101      PMPE     H2R      HAL2     0.900000E-01   1.00800           0
     12484 MEMB     101      PMPE     H2S      HAL2     0.900000E-01   1.00800           0
     12485 MEMB     101      PMPE     C3       CTL2     0.800000E-01   12.0110           0
     12486 MEMB     101      PMPE     HX       HAL2     0.900000E-01   1.00800           0
     12487 MEMB     101      PMPE     HY       HAL2     0.900000E-01   1.00800           0
     12488 MEMB     101      PMPE     O31      OSL     -0.490000       15.9994           0
     12489 MEMB     101      PMPE     C31      CL       0.900000       12.0110           0
     12490 MEMB     101      PMPE     O32      OBL     -0.630000       15.9994           0
     12491 MEMB     101      PMPE     C32      CTL2    -0.220000       12.0110           0
     12492 MEMB     101      PMPE     H2X      HAL2     0.900000E-01   1.00800           0
     12493 MEMB     101      PMPE     H2Y      HAL2     0.900000E-01   1.00800           0
     12494 MEMB     101      PMPE     C23      CTL2    -0.180000       12.0110           0
     12495 MEMB     101      PMPE     H3R      HAL2     0.900000E-01   1.00800           0
     12496 MEMB     101      PMPE     H3S      HAL2     0.900000E-01   1.00800           0
     12497 MEMB     101      PMPE     C24      CTL2    -0.180000       12.0110           0
     12498 MEMB     101      PMPE     H4R      HAL2     0.900000E-01   1.00800           0
     12499 MEMB     101      PMPE     H4S      HAL2     0.900000E-01   1.00800           0
     12500 MEMB     101      PMPE     C25      CTL2    -0.180000       12.0110           0
     12501 MEMB     101      PMPE     H5R      HAL2     0.900000E-01   1.00800           0
     12502 MEMB     101      PMPE     H5S      HAL2     0.900000E-01   1.00800           0
     12503 MEMB     101      PMPE     C26      CTL2    -0.180000       12.0110           0
     12504 MEMB     101      PMPE     H6R      HAL2     0.900000E-01   1.00800           0
     12505 MEMB     101      PMPE     H6S      HAL2     0.900000E-01   1.00800           0
     12506 MEMB     101      PMPE     C27      CTL2    -0.180000       12.0110           0
     12507 MEMB     101      PMPE     H7R      HAL2     0.900000E-01   1.00800           0
     12508 MEMB     101      PMPE     H7S      HAL2     0.900000E-01   1.00800           0
     12509 MEMB     101      PMPE     C28      CTL2    -0.180000       12.0110           0
     12510 MEMB     101      PMPE     H8R      HAL2     0.900000E-01   1.00800           0
     12511 MEMB     101      PMPE     H8S      HAL2     0.900000E-01   1.00800           0
     12512 MEMB     101      PMPE     C29      CG3RC1  -0.900000E-01   12.0110           0
     12513 MEMB     101      PMPE     H9R      HGA1     0.900000E-01   1.00800           0
     12514 MEMB     101      PMPE     C217     CG3C31  -0.180000       12.0110           0
     12515 MEMB     101      PMPE     H17R     HGA2     0.900000E-01   1.00800           0
     12516 MEMB     101      PMPE     H17S     HGA2     0.900000E-01   1.00800           0
     12517 MEMB     101      PMPE     C210     CG3RC1  -0.900000E-01   12.0110           0
     12518 MEMB     101      PMPE     H10R     HGA1     0.900000E-01   1.00800           0
     12519 MEMB     101      PMPE     C211     CTL2    -0.180000       12.0110           0
     12520 MEMB     101      PMPE     H11R     HAL2     0.900000E-01   1.00800           0
     12521 MEMB     101      PMPE     H11S     HAL2     0.900000E-01   1.00800           0
     12522 MEMB     101      PMPE     C212     CTL2    -0.180000       12.0110           0
     12523 MEMB     101      PMPE     H12R     HAL2     0.900000E-01   1.00800           0
     12524 MEMB     101      PMPE     H12S     HAL2     0.900000E-01   1.00800           0
     12525 MEMB     101      PMPE     C213     CTL2    -0.180000       12.0110           0
     12526 MEMB     101      PMPE     H13R     HAL2     0.900000E-01   1.00800           0
     12527 MEMB     101      PMPE     H13S     HAL2     0.900000E-01   1.00800           0
     12528 MEMB     101      PMPE     C214     CTL2    -0.180000       12.0110           0
     12529 MEMB     101      PMPE     H14R     HAL2     0.900000E-01   1.00800           0
     12530 MEMB     101      PMPE     H14S     HAL2     0.900000E-01   1.00800           0
     12531 MEMB     101      PMPE     C215     CTL2    -0.180000       12.0110           0
     12532 MEMB     101      PMPE     H15R     HAL2     0.900000E-01   1.00800           0
     12533 MEMB     101      PMPE     H15S     HAL2     0.900000E-01   1.00800           0
     12534 MEMB     101      PMPE     C216     CTL3    -0.270000       12.0110           0
     12535 MEMB     101      PMPE     H16R     HAL3     0.900000E-01   1.00800           0
     12536 MEMB     101      PMPE     H16S     HAL3     0.900000E-01   1.00800           0
     12537 MEMB     101      PMPE     H16T     HAL3     0.900000E-01   1.00800           0
     12538 MEMB     101      PMPE     C33      CTL2    -0.180000       12.0110           0
     12539 MEMB     101      PMPE     H3X      HAL2     0.900000E-01   1.00800           0
     12540 MEMB     101      PMPE     H3Y      HAL2     0.900000E-01   1.00800           0
     12541 MEMB     101      PMPE     C34      CTL2    -0.180000       12.0110           0
     12542 MEMB     101      PMPE     H4X      HAL2     0.900000E-01   1.00800           0
     12543 MEMB     101      PMPE     H4Y      HAL2     0.900000E-01   1.00800           0
     12544 MEMB     101      PMPE     C35      CTL2    -0.180000       12.0110           0
     12545 MEMB     101      PMPE     H5X      HAL2     0.900000E-01   1.00800           0
     12546 MEMB     101      PMPE     H5Y      HAL2     0.900000E-01   1.00800           0
     12547 MEMB     101      PMPE     C36      CTL2    -0.180000       12.0110           0
     12548 MEMB     101      PMPE     H6X      HAL2     0.900000E-01   1.00800           0
     12549 MEMB     101      PMPE     H6Y      HAL2     0.900000E-01   1.00800           0
     12550 MEMB     101      PMPE     C37      CTL2    -0.180000       12.0110           0
     12551 MEMB     101      PMPE     H7X      HAL2     0.900000E-01   1.00800           0
     12552 MEMB     101      PMPE     H7Y      HAL2     0.900000E-01   1.00800           0
     12553 MEMB     101      PMPE     C38      CTL2    -0.180000       12.0110           0
     12554 MEMB     101      PMPE     H8X      HAL2     0.900000E-01   1.00800           0
     12555 MEMB     101      PMPE     H8Y      HAL2     0.900000E-01   1.00800           0
     12556 MEMB     101      PMPE     C39      CTL2    -0.180000       12.0110           0
     12557 MEMB     101      PMPE     H9X      HAL2     0.900000E-01   1.00800           0
     12558 MEMB     101      PMPE     H9Y      HAL2     0.900000E-01   1.00800           0
     12559 MEMB     101      PMPE     C310     CTL2    -0.180000       12.0110           0
     12560 MEMB     101      PMPE     H10X     HAL2     0.900000E-01   1.00800           0
     12561 MEMB     101      PMPE     H10Y     HAL2     0.900000E-01   1.00800           0
     12562 MEMB     101      PMPE     C311     CTL2    -0.180000       12.0110           0
     12563 MEMB     101      PMPE     H11X     HAL2     0.900000E-01   1.00800           0
     12564 MEMB     101      PMPE     H11Y     HAL2     0.900000E-01   1.00800           0
     12565 MEMB     101      PMPE     C312     CTL2    -0.180000       12.0110           0
     12566 MEMB     101      PMPE     H12X     HAL2     0.900000E-01   1.00800           0
     12567 MEMB     101      PMPE     H12Y     HAL2     0.900000E-01   1.00800           0
     12568 MEMB     101      PMPE     C313     CTL2    -0.180000       12.0110           0
     12569 MEMB     101      PMPE     H13X     HAL2     0.900000E-01   1.00800           0
     12570 MEMB     101      PMPE     H13Y     HAL2     0.900000E-01   1.00800           0
     12571 MEMB     101      PMPE     C314     CTL2    -0.180000       12.0110           0
     12572 MEMB     101      PMPE     H14X     HAL2     0.900000E-01   1.00800           0
     12573 MEMB     101      PMPE     H14Y     HAL2     0.900000E-01   1.00800           0
     12574 MEMB     101      PMPE     C315     CTL2    -0.180000       12.0110           0
     12575 MEMB     101      PMPE     H15X     HAL2     0.900000E-01   1.00800           0
     12576 MEMB     101      PMPE     H15Y     HAL2     0.900000E-01   1.00800           0
     12577 MEMB     101      PMPE     C316     CTL3    -0.270000       12.0110           0
     12578 MEMB     101      PMPE     H16X     HAL3     0.900000E-01   1.00800           0
     12579 MEMB     101      PMPE     H16Y     HAL3     0.900000E-01   1.00800           0
     12580 MEMB     101      PMPE     H16Z     HAL3     0.900000E-01   1.00800           0
     12581 MEMB     102      QMPE     N        NH3L    -0.300000       14.0070           0
     12582 MEMB     102      QMPE     HN1      HCL      0.330000       1.00800           0
     12583 MEMB     102      QMPE     HN2      HCL      0.330000       1.00800           0
     12584 MEMB     102      QMPE     HN3      HCL      0.330000       1.00800           0
     12585 MEMB     102      QMPE     C12      CTL2     0.130000       12.0110           0
     12586 MEMB     102      QMPE     H12A     HAL2     0.900000E-01   1.00800           0
     12587 MEMB     102      QMPE     H12B     HAL2     0.900000E-01   1.00800           0
     12588 MEMB     102      QMPE     C11      CTL2    -0.800000E-01   12.0110           0
     12589 MEMB     102      QMPE     H11A     HAL2     0.900000E-01   1.00800           0
     12590 MEMB     102      QMPE     H11B     HAL2     0.900000E-01   1.00800           0
     12591 MEMB     102      QMPE     P        PL        1.50000       30.9740           0
     12592 MEMB     102      QMPE     O13      O2L     -0.780000       15.9994           0
     12593 MEMB     102      QMPE     O14      O2L     -0.780000       15.9994           0
     12594 MEMB     102      QMPE     O11      OSLP    -0.570000       15.9994           0
     12595 MEMB     102      QMPE     O12      OSLP    -0.570000       15.9994           0
     12596 MEMB     102      QMPE     C1       CTL2    -0.800000E-01   12.0110           0
     12597 MEMB     102      QMPE     HA       HAL2     0.900000E-01   1.00800           0
     12598 MEMB     102      QMPE     HB       HAL2     0.900000E-01   1.00800           0
     12599 MEMB     102      QMPE     C2       CTL1     0.170000       12.0110           0
     12600 MEMB     102      QMPE     HS       HAL1     0.900000E-01   1.00800           0
     12601 MEMB     102      QMPE     O21      OSL     -0.490000       15.9994           0
     12602 MEMB     102      QMPE     C21      CL       0.900000       12.0110           0
     12603 MEMB     102      QMPE     O22      OBL     -0.630000       15.9994           0
     12604 MEMB     102      QMPE     C22      CTL2    -0.220000       12.0110           0
     12605 MEMB     102      QMPE     H2R      HAL2     0.900000E-01   1.00800           0
     12606 MEMB     102      QMPE     H2S      HAL2     0.900000E-01   1.00800           0
     12607 MEMB     102      QMPE     C3       CTL2     0.800000E-01   12.0110           0
     12608 MEMB     102      QMPE     HX       HAL2     0.900000E-01   1.00800           0
     12609 MEMB     102      QMPE     HY       HAL2     0.900000E-01   1.00800           0
     12610 MEMB     102      QMPE     O31      OSL     -0.490000       15.9994           0
     12611 MEMB     102      QMPE     C31      CL       0.900000       12.0110           0
     12612 MEMB     102      QMPE     O32      OBL     -0.630000       15.9994           0
     12613 MEMB     102      QMPE     C32      CTL2    -0.220000       12.0110           0
     12614 MEMB     102      QMPE     H2X      HAL2     0.900000E-01   1.00800           0
     12615 MEMB     102      QMPE     H2Y      HAL2     0.900000E-01   1.00800           0
     12616 MEMB     102      QMPE     C23      CTL2    -0.180000       12.0110           0
     12617 MEMB     102      QMPE     H3R      HAL2     0.900000E-01   1.00800           0
     12618 MEMB     102      QMPE     H3S      HAL2     0.900000E-01   1.00800           0
     12619 MEMB     102      QMPE     C24      CTL2    -0.180000       12.0110           0
     12620 MEMB     102      QMPE     H4R      HAL2     0.900000E-01   1.00800           0
     12621 MEMB     102      QMPE     H4S      HAL2     0.900000E-01   1.00800           0
     12622 MEMB     102      QMPE     C25      CTL2    -0.180000       12.0110           0
     12623 MEMB     102      QMPE     H5R      HAL2     0.900000E-01   1.00800           0
     12624 MEMB     102      QMPE     H5S      HAL2     0.900000E-01   1.00800           0
     12625 MEMB     102      QMPE     C26      CTL2    -0.180000       12.0110           0
     12626 MEMB     102      QMPE     H6R      HAL2     0.900000E-01   1.00800           0
     12627 MEMB     102      QMPE     H6S      HAL2     0.900000E-01   1.00800           0
     12628 MEMB     102      QMPE     C27      CTL2    -0.180000       12.0110           0
     12629 MEMB     102      QMPE     H7R      HAL2     0.900000E-01   1.00800           0
     12630 MEMB     102      QMPE     H7S      HAL2     0.900000E-01   1.00800           0
     12631 MEMB     102      QMPE     C28      CTL2    -0.180000       12.0110           0
     12632 MEMB     102      QMPE     H8R      HAL2     0.900000E-01   1.00800           0
     12633 MEMB     102      QMPE     H8S      HAL2     0.900000E-01   1.00800           0
     12634 MEMB     102      QMPE     C29      CG3RC1  -0.900000E-01   12.0110           0
     12635 MEMB     102      QMPE     H9R      HGA1     0.900000E-01   1.00800           0
     12636 MEMB     102      QMPE     C217     CG3C31  -0.180000       12.0110           0
     12637 MEMB     102      QMPE     H17R     HGA2     0.900000E-01   1.00800           0
     12638 MEMB     102      QMPE     H17S     HGA2     0.900000E-01   1.00800           0
     12639 MEMB     102      QMPE     C210     CG3RC1  -0.900000E-01   12.0110           0
     12640 MEMB     102      QMPE     H10R     HGA1     0.900000E-01   1.00800           0
     12641 MEMB     102      QMPE     C211     CTL2    -0.180000       12.0110           0
     12642 MEMB     102      QMPE     H11R     HAL2     0.900000E-01   1.00800           0
     12643 MEMB     102      QMPE     H11S     HAL2     0.900000E-01   1.00800           0
     12644 MEMB     102      QMPE     C212     CTL2    -0.180000       12.0110           0
     12645 MEMB     102      QMPE     H12R     HAL2     0.900000E-01   1.00800           0
     12646 MEMB     102      QMPE     H12S     HAL2     0.900000E-01   1.00800           0
     12647 MEMB     102      QMPE     C213     CTL2    -0.180000       12.0110           0
     12648 MEMB     102      QMPE     H13R     HAL2     0.900000E-01   1.00800           0
     12649 MEMB     102      QMPE     H13S     HAL2     0.900000E-01   1.00800           0
     12650 MEMB     102      QMPE     C214     CTL2    -0.180000       12.0110           0
     12651 MEMB     102      QMPE     H14R     HAL2     0.900000E-01   1.00800           0
     12652 MEMB     102      QMPE     H14S     HAL2     0.900000E-01   1.00800           0
     12653 MEMB     102      QMPE     C215     CTL2    -0.180000       12.0110           0
     12654 MEMB     102      QMPE     H15R     HAL2     0.900000E-01   1.00800           0
     12655 MEMB     102      QMPE     H15S     HAL2     0.900000E-01   1.00800           0
     12656 MEMB     102      QMPE     C216     CTL3    -0.270000       12.0110           0
     12657 MEMB     102      QMPE     H16R     HAL3     0.900000E-01   1.00800           0
     12658 MEMB     102      QMPE     H16S     HAL3     0.900000E-01   1.00800           0
     12659 MEMB     102      QMPE     H16T     HAL3     0.900000E-01   1.00800           0
     12660 MEMB     102      QMPE     C33      CTL2    -0.180000       12.0110           0
     12661 MEMB     102      QMPE     H3X      HAL2     0.900000E-01   1.00800           0
     12662 MEMB     102      QMPE     H3Y      HAL2     0.900000E-01   1.00800           0
     12663 MEMB     102      QMPE     C34      CTL2    -0.180000       12.0110           0
     12664 MEMB     102      QMPE     H4X      HAL2     0.900000E-01   1.00800           0
     12665 MEMB     102      QMPE     H4Y      HAL2     0.900000E-01   1.00800           0
     12666 MEMB     102      QMPE     C35      CTL2    -0.180000       12.0110           0
     12667 MEMB     102      QMPE     H5X      HAL2     0.900000E-01   1.00800           0
     12668 MEMB     102      QMPE     H5Y      HAL2     0.900000E-01   1.00800           0
     12669 MEMB     102      QMPE     C36      CTL2    -0.180000       12.0110           0
     12670 MEMB     102      QMPE     H6X      HAL2     0.900000E-01   1.00800           0
     12671 MEMB     102      QMPE     H6Y      HAL2     0.900000E-01   1.00800           0
     12672 MEMB     102      QMPE     C37      CTL2    -0.180000       12.0110           0
     12673 MEMB     102      QMPE     H7X      HAL2     0.900000E-01   1.00800           0
     12674 MEMB     102      QMPE     H7Y      HAL2     0.900000E-01   1.00800           0
     12675 MEMB     102      QMPE     C38      CTL2    -0.180000       12.0110           0
     12676 MEMB     102      QMPE     H8X      HAL2     0.900000E-01   1.00800           0
     12677 MEMB     102      QMPE     H8Y      HAL2     0.900000E-01   1.00800           0
     12678 MEMB     102      QMPE     C39      CTL2    -0.180000       12.0110           0
     12679 MEMB     102      QMPE     H9X      HAL2     0.900000E-01   1.00800           0
     12680 MEMB     102      QMPE     H9Y      HAL2     0.900000E-01   1.00800           0
     12681 MEMB     102      QMPE     C310     CTL2    -0.180000       12.0110           0
     12682 MEMB     102      QMPE     H10X     HAL2     0.900000E-01   1.00800           0
     12683 MEMB     102      QMPE     H10Y     HAL2     0.900000E-01   1.00800           0
     12684 MEMB     102      QMPE     C311     CTL2    -0.180000       12.0110           0
     12685 MEMB     102      QMPE     H11X     HAL2     0.900000E-01   1.00800           0
     12686 MEMB     102      QMPE     H11Y     HAL2     0.900000E-01   1.00800           0
     12687 MEMB     102      QMPE     C312     CTL2    -0.180000       12.0110           0
     12688 MEMB     102      QMPE     H12X     HAL2     0.900000E-01   1.00800           0
     12689 MEMB     102      QMPE     H12Y     HAL2     0.900000E-01   1.00800           0
     12690 MEMB     102      QMPE     C313     CTL2    -0.180000       12.0110           0
     12691 MEMB     102      QMPE     H13X     HAL2     0.900000E-01   1.00800           0
     12692 MEMB     102      QMPE     H13Y     HAL2     0.900000E-01   1.00800           0
     12693 MEMB     102      QMPE     C314     CTL2    -0.180000       12.0110           0
     12694 MEMB     102      QMPE     H14X     HAL2     0.900000E-01   1.00800           0
     12695 MEMB     102      QMPE     H14Y     HAL2     0.900000E-01   1.00800           0
     12696 MEMB     102      QMPE     C315     CTL3    -0.270000       12.0110           0
     12697 MEMB     102      QMPE     H15X     HAL3     0.900000E-01   1.00800           0
     12698 MEMB     102      QMPE     H15Y     HAL3     0.900000E-01   1.00800           0
     12699 MEMB     102      QMPE     H15Z     HAL3     0.900000E-01   1.00800           0
     12700 MEMB     103      POPE     N        NH3L    -0.300000       14.0070           0
     12701 MEMB     103      POPE     HN1      HCL      0.330000       1.00800           0
     12702 MEMB     103      POPE     HN2      HCL      0.330000       1.00800           0
     12703 MEMB     103      POPE     HN3      HCL      0.330000       1.00800           0
     12704 MEMB     103      POPE     C12      CTL2     0.130000       12.0110           0
     12705 MEMB     103      POPE     H12A     HAL2     0.900000E-01   1.00800           0
     12706 MEMB     103      POPE     H12B     HAL2     0.900000E-01   1.00800           0
     12707 MEMB     103      POPE     C11      CTL2    -0.800000E-01   12.0110           0
     12708 MEMB     103      POPE     H11A     HAL2     0.900000E-01   1.00800           0
     12709 MEMB     103      POPE     H11B     HAL2     0.900000E-01   1.00800           0
     12710 MEMB     103      POPE     P        PL        1.50000       30.9740           0
     12711 MEMB     103      POPE     O13      O2L     -0.780000       15.9994           0
     12712 MEMB     103      POPE     O14      O2L     -0.780000       15.9994           0
     12713 MEMB     103      POPE     O11      OSLP    -0.570000       15.9994           0
     12714 MEMB     103      POPE     O12      OSLP    -0.570000       15.9994           0
     12715 MEMB     103      POPE     C1       CTL2    -0.800000E-01   12.0110           0
     12716 MEMB     103      POPE     HA       HAL2     0.900000E-01   1.00800           0
     12717 MEMB     103      POPE     HB       HAL2     0.900000E-01   1.00800           0
     12718 MEMB     103      POPE     C2       CTL1     0.170000       12.0110           0
     12719 MEMB     103      POPE     HS       HAL1     0.900000E-01   1.00800           0
     12720 MEMB     103      POPE     O21      OSL     -0.490000       15.9994           0
     12721 MEMB     103      POPE     C21      CL       0.900000       12.0110           0
     12722 MEMB     103      POPE     O22      OBL     -0.630000       15.9994           0
     12723 MEMB     103      POPE     C22      CTL2    -0.220000       12.0110           0
     12724 MEMB     103      POPE     H2R      HAL2     0.900000E-01   1.00800           0
     12725 MEMB     103      POPE     H2S      HAL2     0.900000E-01   1.00800           0
     12726 MEMB     103      POPE     C3       CTL2     0.800000E-01   12.0110           0
     12727 MEMB     103      POPE     HX       HAL2     0.900000E-01   1.00800           0
     12728 MEMB     103      POPE     HY       HAL2     0.900000E-01   1.00800           0
     12729 MEMB     103      POPE     O31      OSL     -0.490000       15.9994           0
     12730 MEMB     103      POPE     C31      CL       0.900000       12.0110           0
     12731 MEMB     103      POPE     O32      OBL     -0.630000       15.9994           0
     12732 MEMB     103      POPE     C32      CTL2    -0.220000       12.0110           0
     12733 MEMB     103      POPE     H2X      HAL2     0.900000E-01   1.00800           0
     12734 MEMB     103      POPE     H2Y      HAL2     0.900000E-01   1.00800           0
     12735 MEMB     103      POPE     C23      CTL2    -0.180000       12.0110           0
     12736 MEMB     103      POPE     H3R      HAL2     0.900000E-01   1.00800           0
     12737 MEMB     103      POPE     H3S      HAL2     0.900000E-01   1.00800           0
     12738 MEMB     103      POPE     C24      CTL2    -0.180000       12.0110           0
     12739 MEMB     103      POPE     H4R      HAL2     0.900000E-01   1.00800           0
     12740 MEMB     103      POPE     H4S      HAL2     0.900000E-01   1.00800           0
     12741 MEMB     103      POPE     C25      CTL2    -0.180000       12.0110           0
     12742 MEMB     103      POPE     H5R      HAL2     0.900000E-01   1.00800           0
     12743 MEMB     103      POPE     H5S      HAL2     0.900000E-01   1.00800           0
     12744 MEMB     103      POPE     C26      CTL2    -0.180000       12.0110           0
     12745 MEMB     103      POPE     H6R      HAL2     0.900000E-01   1.00800           0
     12746 MEMB     103      POPE     H6S      HAL2     0.900000E-01   1.00800           0
     12747 MEMB     103      POPE     C27      CTL2    -0.180000       12.0110           0
     12748 MEMB     103      POPE     H7R      HAL2     0.900000E-01   1.00800           0
     12749 MEMB     103      POPE     H7S      HAL2     0.900000E-01   1.00800           0
     12750 MEMB     103      POPE     C28      CTL2    -0.180000       12.0110           0
     12751 MEMB     103      POPE     H8R      HAL2     0.900000E-01   1.00800           0
     12752 MEMB     103      POPE     H8S      HAL2     0.900000E-01   1.00800           0
     12753 MEMB     103      POPE     C29      CEL1    -0.150000       12.0110           0
     12754 MEMB     103      POPE     H91      HEL1     0.150000       1.00800           0
     12755 MEMB     103      POPE     C210     CEL1    -0.150000       12.0110           0
     12756 MEMB     103      POPE     H101     HEL1     0.150000       1.00800           0
     12757 MEMB     103      POPE     C211     CTL2    -0.180000       12.0110           0
     12758 MEMB     103      POPE     H11R     HAL2     0.900000E-01   1.00800           0
     12759 MEMB     103      POPE     H11S     HAL2     0.900000E-01   1.00800           0
     12760 MEMB     103      POPE     C212     CTL2    -0.180000       12.0110           0
     12761 MEMB     103      POPE     H12R     HAL2     0.900000E-01   1.00800           0
     12762 MEMB     103      POPE     H12S     HAL2     0.900000E-01   1.00800           0
     12763 MEMB     103      POPE     C213     CTL2    -0.180000       12.0110           0
     12764 MEMB     103      POPE     H13R     HAL2     0.900000E-01   1.00800           0
     12765 MEMB     103      POPE     H13S     HAL2     0.900000E-01   1.00800           0
     12766 MEMB     103      POPE     C214     CTL2    -0.180000       12.0110           0
     12767 MEMB     103      POPE     H14R     HAL2     0.900000E-01   1.00800           0
     12768 MEMB     103      POPE     H14S     HAL2     0.900000E-01   1.00800           0
     12769 MEMB     103      POPE     C215     CTL2    -0.180000       12.0110           0
     12770 MEMB     103      POPE     H15R     HAL2     0.900000E-01   1.00800           0
     12771 MEMB     103      POPE     H15S     HAL2     0.900000E-01   1.00800           0
     12772 MEMB     103      POPE     C216     CTL2    -0.180000       12.0110           0
     12773 MEMB     103      POPE     H16R     HAL2     0.900000E-01   1.00800           0
     12774 MEMB     103      POPE     H16S     HAL2     0.900000E-01   1.00800           0
     12775 MEMB     103      POPE     C217     CTL2    -0.180000       12.0110           0
     12776 MEMB     103      POPE     H17R     HAL2     0.900000E-01   1.00800           0
     12777 MEMB     103      POPE     H17S     HAL2     0.900000E-01   1.00800           0
     12778 MEMB     103      POPE     C218     CTL3    -0.270000       12.0110           0
     12779 MEMB     103      POPE     H18R     HAL3     0.900000E-01   1.00800           0
     12780 MEMB     103      POPE     H18S     HAL3     0.900000E-01   1.00800           0
     12781 MEMB     103      POPE     H18T     HAL3     0.900000E-01   1.00800           0
     12782 MEMB     103      POPE     C33      CTL2    -0.180000       12.0110           0
     12783 MEMB     103      POPE     H3X      HAL2     0.900000E-01   1.00800           0
     12784 MEMB     103      POPE     H3Y      HAL2     0.900000E-01   1.00800           0
     12785 MEMB     103      POPE     C34      CTL2    -0.180000       12.0110           0
     12786 MEMB     103      POPE     H4X      HAL2     0.900000E-01   1.00800           0
     12787 MEMB     103      POPE     H4Y      HAL2     0.900000E-01   1.00800           0
     12788 MEMB     103      POPE     C35      CTL2    -0.180000       12.0110           0
     12789 MEMB     103      POPE     H5X      HAL2     0.900000E-01   1.00800           0
     12790 MEMB     103      POPE     H5Y      HAL2     0.900000E-01   1.00800           0
     12791 MEMB     103      POPE     C36      CTL2    -0.180000       12.0110           0
     12792 MEMB     103      POPE     H6X      HAL2     0.900000E-01   1.00800           0
     12793 MEMB     103      POPE     H6Y      HAL2     0.900000E-01   1.00800           0
     12794 MEMB     103      POPE     C37      CTL2    -0.180000       12.0110           0
     12795 MEMB     103      POPE     H7X      HAL2     0.900000E-01   1.00800           0
     12796 MEMB     103      POPE     H7Y      HAL2     0.900000E-01   1.00800           0
     12797 MEMB     103      POPE     C38      CTL2    -0.180000       12.0110           0
     12798 MEMB     103      POPE     H8X      HAL2     0.900000E-01   1.00800           0
     12799 MEMB     103      POPE     H8Y      HAL2     0.900000E-01   1.00800           0
     12800 MEMB     103      POPE     C39      CTL2    -0.180000       12.0110           0
     12801 MEMB     103      POPE     H9X      HAL2     0.900000E-01   1.00800           0
     12802 MEMB     103      POPE     H9Y      HAL2     0.900000E-01   1.00800           0
     12803 MEMB     103      POPE     C310     CTL2    -0.180000       12.0110           0
     12804 MEMB     103      POPE     H10X     HAL2     0.900000E-01   1.00800           0
     12805 MEMB     103      POPE     H10Y     HAL2     0.900000E-01   1.00800           0
     12806 MEMB     103      POPE     C311     CTL2    -0.180000       12.0110           0
     12807 MEMB     103      POPE     H11X     HAL2     0.900000E-01   1.00800           0
     12808 MEMB     103      POPE     H11Y     HAL2     0.900000E-01   1.00800           0
     12809 MEMB     103      POPE     C312     CTL2    -0.180000       12.0110           0
     12810 MEMB     103      POPE     H12X     HAL2     0.900000E-01   1.00800           0
     12811 MEMB     103      POPE     H12Y     HAL2     0.900000E-01   1.00800           0
     12812 MEMB     103      POPE     C313     CTL2    -0.180000       12.0110           0
     12813 MEMB     103      POPE     H13X     HAL2     0.900000E-01   1.00800           0
     12814 MEMB     103      POPE     H13Y     HAL2     0.900000E-01   1.00800           0
     12815 MEMB     103      POPE     C314     CTL2    -0.180000       12.0110           0
     12816 MEMB     103      POPE     H14X     HAL2     0.900000E-01   1.00800           0
     12817 MEMB     103      POPE     H14Y     HAL2     0.900000E-01   1.00800           0
     12818 MEMB     103      POPE     C315     CTL2    -0.180000       12.0110           0
     12819 MEMB     103      POPE     H15X     HAL2     0.900000E-01   1.00800           0
     12820 MEMB     103      POPE     H15Y     HAL2     0.900000E-01   1.00800           0
     12821 MEMB     103      POPE     C316     CTL3    -0.270000       12.0110           0
     12822 MEMB     103      POPE     H16X     HAL3     0.900000E-01   1.00800           0
     12823 MEMB     103      POPE     H16Y     HAL3     0.900000E-01   1.00800           0
     12824 MEMB     103      POPE     H16Z     HAL3     0.900000E-01   1.00800           0
     12825 MEMB     104      OYPE     N        NH3L    -0.300000       14.0070           0
     12826 MEMB     104      OYPE     HN1      HCL      0.330000       1.00800           0
     12827 MEMB     104      OYPE     HN2      HCL      0.330000       1.00800           0
     12828 MEMB     104      OYPE     HN3      HCL      0.330000       1.00800           0
     12829 MEMB     104      OYPE     C12      CTL2     0.130000       12.0110           0
     12830 MEMB     104      OYPE     H12A     HAL2     0.900000E-01   1.00800           0
     12831 MEMB     104      OYPE     H12B     HAL2     0.900000E-01   1.00800           0
     12832 MEMB     104      OYPE     C11      CTL2    -0.800000E-01   12.0110           0
     12833 MEMB     104      OYPE     H11A     HAL2     0.900000E-01   1.00800           0
     12834 MEMB     104      OYPE     H11B     HAL2     0.900000E-01   1.00800           0
     12835 MEMB     104      OYPE     P        PL        1.50000       30.9740           0
     12836 MEMB     104      OYPE     O13      O2L     -0.780000       15.9994           0
     12837 MEMB     104      OYPE     O14      O2L     -0.780000       15.9994           0
     12838 MEMB     104      OYPE     O11      OSLP    -0.570000       15.9994           0
     12839 MEMB     104      OYPE     O12      OSLP    -0.570000       15.9994           0
     12840 MEMB     104      OYPE     C1       CTL2    -0.800000E-01   12.0110           0
     12841 MEMB     104      OYPE     HA       HAL2     0.900000E-01   1.00800           0
     12842 MEMB     104      OYPE     HB       HAL2     0.900000E-01   1.00800           0
     12843 MEMB     104      OYPE     C2       CTL1     0.170000       12.0110           0
     12844 MEMB     104      OYPE     HS       HAL1     0.900000E-01   1.00800           0
     12845 MEMB     104      OYPE     O21      OSL     -0.490000       15.9994           0
     12846 MEMB     104      OYPE     C21      CL       0.900000       12.0110           0
     12847 MEMB     104      OYPE     O22      OBL     -0.630000       15.9994           0
     12848 MEMB     104      OYPE     C22      CTL2    -0.220000       12.0110           0
     12849 MEMB     104      OYPE     H2R      HAL2     0.900000E-01   1.00800           0
     12850 MEMB     104      OYPE     H2S      HAL2     0.900000E-01   1.00800           0
     12851 MEMB     104      OYPE     C3       CTL2     0.800000E-01   12.0110           0
     12852 MEMB     104      OYPE     HX       HAL2     0.900000E-01   1.00800           0
     12853 MEMB     104      OYPE     HY       HAL2     0.900000E-01   1.00800           0
     12854 MEMB     104      OYPE     O31      OSL     -0.490000       15.9994           0
     12855 MEMB     104      OYPE     C31      CL       0.900000       12.0110           0
     12856 MEMB     104      OYPE     O32      OBL     -0.630000       15.9994           0
     12857 MEMB     104      OYPE     C32      CTL2    -0.220000       12.0110           0
     12858 MEMB     104      OYPE     H2X      HAL2     0.900000E-01   1.00800           0
     12859 MEMB     104      OYPE     H2Y      HAL2     0.900000E-01   1.00800           0
     12860 MEMB     104      OYPE     C23      CTL2    -0.180000       12.0110           0
     12861 MEMB     104      OYPE     H3R      HAL2     0.900000E-01   1.00800           0
     12862 MEMB     104      OYPE     H3S      HAL2     0.900000E-01   1.00800           0
     12863 MEMB     104      OYPE     C24      CTL2    -0.180000       12.0110           0
     12864 MEMB     104      OYPE     H4R      HAL2     0.900000E-01   1.00800           0
     12865 MEMB     104      OYPE     H4S      HAL2     0.900000E-01   1.00800           0
     12866 MEMB     104      OYPE     C25      CTL2    -0.180000       12.0110           0
     12867 MEMB     104      OYPE     H5R      HAL2     0.900000E-01   1.00800           0
     12868 MEMB     104      OYPE     H5S      HAL2     0.900000E-01   1.00800           0
     12869 MEMB     104      OYPE     C26      CTL2    -0.180000       12.0110           0
     12870 MEMB     104      OYPE     H6R      HAL2     0.900000E-01   1.00800           0
     12871 MEMB     104      OYPE     H6S      HAL2     0.900000E-01   1.00800           0
     12872 MEMB     104      OYPE     C27      CTL2    -0.180000       12.0110           0
     12873 MEMB     104      OYPE     H7R      HAL2     0.900000E-01   1.00800           0
     12874 MEMB     104      OYPE     H7S      HAL2     0.900000E-01   1.00800           0
     12875 MEMB     104      OYPE     C28      CTL2    -0.180000       12.0110           0
     12876 MEMB     104      OYPE     H8R      HAL2     0.900000E-01   1.00800           0
     12877 MEMB     104      OYPE     H8S      HAL2     0.900000E-01   1.00800           0
     12878 MEMB     104      OYPE     C29      CEL1    -0.150000       12.0110           0
     12879 MEMB     104      OYPE     H9R      HEL1     0.150000       1.00800           0
     12880 MEMB     104      OYPE     C210     CEL1    -0.150000       12.0110           0
     12881 MEMB     104      OYPE     H10R     HEL1     0.150000       1.00800           0
     12882 MEMB     104      OYPE     C211     CTL2    -0.180000       12.0110           0
     12883 MEMB     104      OYPE     H11R     HAL2     0.900000E-01   1.00800           0
     12884 MEMB     104      OYPE     H11S     HAL2     0.900000E-01   1.00800           0
     12885 MEMB     104      OYPE     C212     CTL2    -0.180000       12.0110           0
     12886 MEMB     104      OYPE     H12R     HAL2     0.900000E-01   1.00800           0
     12887 MEMB     104      OYPE     H12S     HAL2     0.900000E-01   1.00800           0
     12888 MEMB     104      OYPE     C213     CTL2    -0.180000       12.0110           0
     12889 MEMB     104      OYPE     H13R     HAL2     0.900000E-01   1.00800           0
     12890 MEMB     104      OYPE     H13S     HAL2     0.900000E-01   1.00800           0
     12891 MEMB     104      OYPE     C214     CTL2    -0.180000       12.0110           0
     12892 MEMB     104      OYPE     H14R     HAL2     0.900000E-01   1.00800           0
     12893 MEMB     104      OYPE     H14S     HAL2     0.900000E-01   1.00800           0
     12894 MEMB     104      OYPE     C215     CTL2    -0.180000       12.0110           0
     12895 MEMB     104      OYPE     H15R     HAL2     0.900000E-01   1.00800           0
     12896 MEMB     104      OYPE     H15S     HAL2     0.900000E-01   1.00800           0
     12897 MEMB     104      OYPE     C216     CTL3    -0.270000       12.0110           0
     12898 MEMB     104      OYPE     H16R     HAL3     0.900000E-01   1.00800           0
     12899 MEMB     104      OYPE     H16S     HAL3     0.900000E-01   1.00800           0
     12900 MEMB     104      OYPE     H16T     HAL3     0.900000E-01   1.00800           0
     12901 MEMB     104      OYPE     C33      CTL2    -0.180000       12.0110           0
     12902 MEMB     104      OYPE     H3X      HAL2     0.900000E-01   1.00800           0
     12903 MEMB     104      OYPE     H3Y      HAL2     0.900000E-01   1.00800           0
     12904 MEMB     104      OYPE     C34      CTL2    -0.180000       12.0110           0
     12905 MEMB     104      OYPE     H4X      HAL2     0.900000E-01   1.00800           0
     12906 MEMB     104      OYPE     H4Y      HAL2     0.900000E-01   1.00800           0
     12907 MEMB     104      OYPE     C35      CTL2    -0.180000       12.0110           0
     12908 MEMB     104      OYPE     H5X      HAL2     0.900000E-01   1.00800           0
     12909 MEMB     104      OYPE     H5Y      HAL2     0.900000E-01   1.00800           0
     12910 MEMB     104      OYPE     C36      CTL2    -0.180000       12.0110           0
     12911 MEMB     104      OYPE     H6X      HAL2     0.900000E-01   1.00800           0
     12912 MEMB     104      OYPE     H6Y      HAL2     0.900000E-01   1.00800           0
     12913 MEMB     104      OYPE     C37      CTL2    -0.180000       12.0110           0
     12914 MEMB     104      OYPE     H7X      HAL2     0.900000E-01   1.00800           0
     12915 MEMB     104      OYPE     H7Y      HAL2     0.900000E-01   1.00800           0
     12916 MEMB     104      OYPE     C38      CTL2    -0.180000       12.0110           0
     12917 MEMB     104      OYPE     H8X      HAL2     0.900000E-01   1.00800           0
     12918 MEMB     104      OYPE     H8Y      HAL2     0.900000E-01   1.00800           0
     12919 MEMB     104      OYPE     C39      CEL1    -0.150000       12.0110           0
     12920 MEMB     104      OYPE     H9X      HEL1     0.150000       1.00800           0
     12921 MEMB     104      OYPE     C310     CEL1    -0.150000       12.0110           0
     12922 MEMB     104      OYPE     H10X     HEL1     0.150000       1.00800           0
     12923 MEMB     104      OYPE     C311     CTL2    -0.180000       12.0110           0
     12924 MEMB     104      OYPE     H11X     HAL2     0.900000E-01   1.00800           0
     12925 MEMB     104      OYPE     H11Y     HAL2     0.900000E-01   1.00800           0
     12926 MEMB     104      OYPE     C312     CTL2    -0.180000       12.0110           0
     12927 MEMB     104      OYPE     H12X     HAL2     0.900000E-01   1.00800           0
     12928 MEMB     104      OYPE     H12Y     HAL2     0.900000E-01   1.00800           0
     12929 MEMB     104      OYPE     C313     CTL2    -0.180000       12.0110           0
     12930 MEMB     104      OYPE     H13X     HAL2     0.900000E-01   1.00800           0
     12931 MEMB     104      OYPE     H13Y     HAL2     0.900000E-01   1.00800           0
     12932 MEMB     104      OYPE     C314     CTL2    -0.180000       12.0110           0
     12933 MEMB     104      OYPE     H14X     HAL2     0.900000E-01   1.00800           0
     12934 MEMB     104      OYPE     H14Y     HAL2     0.900000E-01   1.00800           0
     12935 MEMB     104      OYPE     C315     CTL2    -0.180000       12.0110           0
     12936 MEMB     104      OYPE     H15X     HAL2     0.900000E-01   1.00800           0
     12937 MEMB     104      OYPE     H15Y     HAL2     0.900000E-01   1.00800           0
     12938 MEMB     104      OYPE     C316     CTL2    -0.180000       12.0110           0
     12939 MEMB     104      OYPE     H16X     HAL2     0.900000E-01   1.00800           0
     12940 MEMB     104      OYPE     H16Y     HAL2     0.900000E-01   1.00800           0
     12941 MEMB     104      OYPE     C317     CTL2    -0.180000       12.0110           0
     12942 MEMB     104      OYPE     H17X     HAL2     0.900000E-01   1.00800           0
     12943 MEMB     104      OYPE     H17Y     HAL2     0.900000E-01   1.00800           0
     12944 MEMB     104      OYPE     C318     CTL3    -0.270000       12.0110           0
     12945 MEMB     104      OYPE     H18X     HAL3     0.900000E-01   1.00800           0
     12946 MEMB     104      OYPE     H18Y     HAL3     0.900000E-01   1.00800           0
     12947 MEMB     104      OYPE     H18Z     HAL3     0.900000E-01   1.00800           0
     12948 MEMB     105      PYPG     C13      CTL2     0.500000E-01   12.0110           0
     12949 MEMB     105      PYPG     H13A     HAL2     0.900000E-01   1.00800           0
     12950 MEMB     105      PYPG     H13B     HAL2     0.900000E-01   1.00800           0
     12951 MEMB     105      PYPG     OC3      OHL     -0.660000       15.9994           0
     12952 MEMB     105      PYPG     HO3      HOL      0.430000       1.00800           0
     12953 MEMB     105      PYPG     C12      CTL1     0.140000       12.0110           0
     12954 MEMB     105      PYPG     H12A     HAL1     0.900000E-01   1.00800           0
     12955 MEMB     105      PYPG     OC2      OHL     -0.660000       15.9994           0
     12956 MEMB     105      PYPG     HO2      HOL      0.430000       1.00800           0
     12957 MEMB     105      PYPG     C11      CTL2    -0.800000E-01   12.0110           0
     12958 MEMB     105      PYPG     H11A     HAL2     0.900000E-01   1.00800           0
     12959 MEMB     105      PYPG     H11B     HAL2     0.900000E-01   1.00800           0
     12960 MEMB     105      PYPG     P        PL        1.50000       30.9740           0
     12961 MEMB     105      PYPG     O13      O2L     -0.780000       15.9994           0
     12962 MEMB     105      PYPG     O14      O2L     -0.780000       15.9994           0
     12963 MEMB     105      PYPG     O11      OSLP    -0.570000       15.9994           0
     12964 MEMB     105      PYPG     O12      OSLP    -0.570000       15.9994           0
     12965 MEMB     105      PYPG     C1       CTL2    -0.800000E-01   12.0110           0
     12966 MEMB     105      PYPG     HA       HAL2     0.900000E-01   1.00800           0
     12967 MEMB     105      PYPG     HB       HAL2     0.900000E-01   1.00800           0
     12968 MEMB     105      PYPG     C2       CTL1     0.170000       12.0110           0
     12969 MEMB     105      PYPG     HS       HAL1     0.900000E-01   1.00800           0
     12970 MEMB     105      PYPG     O21      OSL     -0.490000       15.9994           0
     12971 MEMB     105      PYPG     C21      CL       0.900000       12.0110           0
     12972 MEMB     105      PYPG     O22      OBL     -0.630000       15.9994           0
     12973 MEMB     105      PYPG     C22      CTL2    -0.220000       12.0110           0
     12974 MEMB     105      PYPG     H2R      HAL2     0.900000E-01   1.00800           0
     12975 MEMB     105      PYPG     H2S      HAL2     0.900000E-01   1.00800           0
     12976 MEMB     105      PYPG     C3       CTL2     0.800000E-01   12.0110           0
     12977 MEMB     105      PYPG     HX       HAL2     0.900000E-01   1.00800           0
     12978 MEMB     105      PYPG     HY       HAL2     0.900000E-01   1.00800           0
     12979 MEMB     105      PYPG     O31      OSL     -0.490000       15.9994           0
     12980 MEMB     105      PYPG     C31      CL       0.900000       12.0110           0
     12981 MEMB     105      PYPG     O32      OBL     -0.630000       15.9994           0
     12982 MEMB     105      PYPG     C32      CTL2    -0.220000       12.0110           0
     12983 MEMB     105      PYPG     H2X      HAL2     0.900000E-01   1.00800           0
     12984 MEMB     105      PYPG     H2Y      HAL2     0.900000E-01   1.00800           0
     12985 MEMB     105      PYPG     C23      CTL2    -0.180000       12.0110           0
     12986 MEMB     105      PYPG     H3R      HAL2     0.900000E-01   1.00800           0
     12987 MEMB     105      PYPG     H3S      HAL2     0.900000E-01   1.00800           0
     12988 MEMB     105      PYPG     C24      CTL2    -0.180000       12.0110           0
     12989 MEMB     105      PYPG     H4R      HAL2     0.900000E-01   1.00800           0
     12990 MEMB     105      PYPG     H4S      HAL2     0.900000E-01   1.00800           0
     12991 MEMB     105      PYPG     C25      CTL2    -0.180000       12.0110           0
     12992 MEMB     105      PYPG     H5R      HAL2     0.900000E-01   1.00800           0
     12993 MEMB     105      PYPG     H5S      HAL2     0.900000E-01   1.00800           0
     12994 MEMB     105      PYPG     C26      CTL2    -0.180000       12.0110           0
     12995 MEMB     105      PYPG     H6R      HAL2     0.900000E-01   1.00800           0
     12996 MEMB     105      PYPG     H6S      HAL2     0.900000E-01   1.00800           0
     12997 MEMB     105      PYPG     C27      CTL2    -0.180000       12.0110           0
     12998 MEMB     105      PYPG     H7R      HAL2     0.900000E-01   1.00800           0
     12999 MEMB     105      PYPG     H7S      HAL2     0.900000E-01   1.00800           0
     13000 MEMB     105      PYPG     C28      CTL2    -0.180000       12.0110           0
     13001 MEMB     105      PYPG     H8R      HAL2     0.900000E-01   1.00800           0
     13002 MEMB     105      PYPG     H8S      HAL2     0.900000E-01   1.00800           0
     13003 MEMB     105      PYPG     C29      CEL1    -0.150000       12.0110           0
     13004 MEMB     105      PYPG     H9R      HEL1     0.150000       1.00800           0
     13005 MEMB     105      PYPG     C210     CEL1    -0.150000       12.0110           0
     13006 MEMB     105      PYPG     H10R     HEL1     0.150000       1.00800           0
     13007 MEMB     105      PYPG     C211     CTL2    -0.180000       12.0110           0
     13008 MEMB     105      PYPG     H11R     HAL2     0.900000E-01   1.00800           0
     13009 MEMB     105      PYPG     H11S     HAL2     0.900000E-01   1.00800           0
     13010 MEMB     105      PYPG     C212     CTL2    -0.180000       12.0110           0
     13011 MEMB     105      PYPG     H12R     HAL2     0.900000E-01   1.00800           0
     13012 MEMB     105      PYPG     H12S     HAL2     0.900000E-01   1.00800           0
     13013 MEMB     105      PYPG     C213     CTL2    -0.180000       12.0110           0
     13014 MEMB     105      PYPG     H13R     HAL2     0.900000E-01   1.00800           0
     13015 MEMB     105      PYPG     H13S     HAL2     0.900000E-01   1.00800           0
     13016 MEMB     105      PYPG     C214     CTL2    -0.180000       12.0110           0
     13017 MEMB     105      PYPG     H14R     HAL2     0.900000E-01   1.00800           0
     13018 MEMB     105      PYPG     H14S     HAL2     0.900000E-01   1.00800           0
     13019 MEMB     105      PYPG     C215     CTL2    -0.180000       12.0110           0
     13020 MEMB     105      PYPG     H15R     HAL2     0.900000E-01   1.00800           0
     13021 MEMB     105      PYPG     H15S     HAL2     0.900000E-01   1.00800           0
     13022 MEMB     105      PYPG     C216     CTL3    -0.270000       12.0110           0
     13023 MEMB     105      PYPG     H16R     HAL3     0.900000E-01   1.00800           0
     13024 MEMB     105      PYPG     H16S     HAL3     0.900000E-01   1.00800           0
     13025 MEMB     105      PYPG     H16T     HAL3     0.900000E-01   1.00800           0
     13026 MEMB     105      PYPG     C33      CTL2    -0.180000       12.0110           0
     13027 MEMB     105      PYPG     H3X      HAL2     0.900000E-01   1.00800           0
     13028 MEMB     105      PYPG     H3Y      HAL2     0.900000E-01   1.00800           0
     13029 MEMB     105      PYPG     C34      CTL2    -0.180000       12.0110           0
     13030 MEMB     105      PYPG     H4X      HAL2     0.900000E-01   1.00800           0
     13031 MEMB     105      PYPG     H4Y      HAL2     0.900000E-01   1.00800           0
     13032 MEMB     105      PYPG     C35      CTL2    -0.180000       12.0110           0
     13033 MEMB     105      PYPG     H5X      HAL2     0.900000E-01   1.00800           0
     13034 MEMB     105      PYPG     H5Y      HAL2     0.900000E-01   1.00800           0
     13035 MEMB     105      PYPG     C36      CTL2    -0.180000       12.0110           0
     13036 MEMB     105      PYPG     H6X      HAL2     0.900000E-01   1.00800           0
     13037 MEMB     105      PYPG     H6Y      HAL2     0.900000E-01   1.00800           0
     13038 MEMB     105      PYPG     C37      CTL2    -0.180000       12.0110           0
     13039 MEMB     105      PYPG     H7X      HAL2     0.900000E-01   1.00800           0
     13040 MEMB     105      PYPG     H7Y      HAL2     0.900000E-01   1.00800           0
     13041 MEMB     105      PYPG     C38      CTL2    -0.180000       12.0110           0
     13042 MEMB     105      PYPG     H8X      HAL2     0.900000E-01   1.00800           0
     13043 MEMB     105      PYPG     H8Y      HAL2     0.900000E-01   1.00800           0
     13044 MEMB     105      PYPG     C39      CTL2    -0.180000       12.0110           0
     13045 MEMB     105      PYPG     H9X      HAL2     0.900000E-01   1.00800           0
     13046 MEMB     105      PYPG     H9Y      HAL2     0.900000E-01   1.00800           0
     13047 MEMB     105      PYPG     C310     CTL2    -0.180000       12.0110           0
     13048 MEMB     105      PYPG     H10X     HAL2     0.900000E-01   1.00800           0
     13049 MEMB     105      PYPG     H10Y     HAL2     0.900000E-01   1.00800           0
     13050 MEMB     105      PYPG     C311     CTL2    -0.180000       12.0110           0
     13051 MEMB     105      PYPG     H11X     HAL2     0.900000E-01   1.00800           0
     13052 MEMB     105      PYPG     H11Y     HAL2     0.900000E-01   1.00800           0
     13053 MEMB     105      PYPG     C312     CTL2    -0.180000       12.0110           0
     13054 MEMB     105      PYPG     H12X     HAL2     0.900000E-01   1.00800           0
     13055 MEMB     105      PYPG     H12Y     HAL2     0.900000E-01   1.00800           0
     13056 MEMB     105      PYPG     C313     CTL2    -0.180000       12.0110           0
     13057 MEMB     105      PYPG     H13X     HAL2     0.900000E-01   1.00800           0
     13058 MEMB     105      PYPG     H13Y     HAL2     0.900000E-01   1.00800           0
     13059 MEMB     105      PYPG     C314     CTL2    -0.180000       12.0110           0
     13060 MEMB     105      PYPG     H14X     HAL2     0.900000E-01   1.00800           0
     13061 MEMB     105      PYPG     H14Y     HAL2     0.900000E-01   1.00800           0
     13062 MEMB     105      PYPG     C315     CTL2    -0.180000       12.0110           0
     13063 MEMB     105      PYPG     H15X     HAL2     0.900000E-01   1.00800           0
     13064 MEMB     105      PYPG     H15Y     HAL2     0.900000E-01   1.00800           0
     13065 MEMB     105      PYPG     C316     CTL3    -0.270000       12.0110           0
     13066 MEMB     105      PYPG     H16X     HAL3     0.900000E-01   1.00800           0
     13067 MEMB     105      PYPG     H16Y     HAL3     0.900000E-01   1.00800           0
     13068 MEMB     105      PYPG     H16Z     HAL3     0.900000E-01   1.00800           0
     13069 MEMB     106      PYPG     C13      CTL2     0.500000E-01   12.0110           0
     13070 MEMB     106      PYPG     H13A     HAL2     0.900000E-01   1.00800           0
     13071 MEMB     106      PYPG     H13B     HAL2     0.900000E-01   1.00800           0
     13072 MEMB     106      PYPG     OC3      OHL     -0.660000       15.9994           0
     13073 MEMB     106      PYPG     HO3      HOL      0.430000       1.00800           0
     13074 MEMB     106      PYPG     C12      CTL1     0.140000       12.0110           0
     13075 MEMB     106      PYPG     H12A     HAL1     0.900000E-01   1.00800           0
     13076 MEMB     106      PYPG     OC2      OHL     -0.660000       15.9994           0
     13077 MEMB     106      PYPG     HO2      HOL      0.430000       1.00800           0
     13078 MEMB     106      PYPG     C11      CTL2    -0.800000E-01   12.0110           0
     13079 MEMB     106      PYPG     H11A     HAL2     0.900000E-01   1.00800           0
     13080 MEMB     106      PYPG     H11B     HAL2     0.900000E-01   1.00800           0
     13081 MEMB     106      PYPG     P        PL        1.50000       30.9740           0
     13082 MEMB     106      PYPG     O13      O2L     -0.780000       15.9994           0
     13083 MEMB     106      PYPG     O14      O2L     -0.780000       15.9994           0
     13084 MEMB     106      PYPG     O11      OSLP    -0.570000       15.9994           0
     13085 MEMB     106      PYPG     O12      OSLP    -0.570000       15.9994           0
     13086 MEMB     106      PYPG     C1       CTL2    -0.800000E-01   12.0110           0
     13087 MEMB     106      PYPG     HA       HAL2     0.900000E-01   1.00800           0
     13088 MEMB     106      PYPG     HB       HAL2     0.900000E-01   1.00800           0
     13089 MEMB     106      PYPG     C2       CTL1     0.170000       12.0110           0
     13090 MEMB     106      PYPG     HS       HAL1     0.900000E-01   1.00800           0
     13091 MEMB     106      PYPG     O21      OSL     -0.490000       15.9994           0
     13092 MEMB     106      PYPG     C21      CL       0.900000       12.0110           0
     13093 MEMB     106      PYPG     O22      OBL     -0.630000       15.9994           0
     13094 MEMB     106      PYPG     C22      CTL2    -0.220000       12.0110           0
     13095 MEMB     106      PYPG     H2R      HAL2     0.900000E-01   1.00800           0
     13096 MEMB     106      PYPG     H2S      HAL2     0.900000E-01   1.00800           0
     13097 MEMB     106      PYPG     C3       CTL2     0.800000E-01   12.0110           0
     13098 MEMB     106      PYPG     HX       HAL2     0.900000E-01   1.00800           0
     13099 MEMB     106      PYPG     HY       HAL2     0.900000E-01   1.00800           0
     13100 MEMB     106      PYPG     O31      OSL     -0.490000       15.9994           0
     13101 MEMB     106      PYPG     C31      CL       0.900000       12.0110           0
     13102 MEMB     106      PYPG     O32      OBL     -0.630000       15.9994           0
     13103 MEMB     106      PYPG     C32      CTL2    -0.220000       12.0110           0
     13104 MEMB     106      PYPG     H2X      HAL2     0.900000E-01   1.00800           0
     13105 MEMB     106      PYPG     H2Y      HAL2     0.900000E-01   1.00800           0
     13106 MEMB     106      PYPG     C23      CTL2    -0.180000       12.0110           0
     13107 MEMB     106      PYPG     H3R      HAL2     0.900000E-01   1.00800           0
     13108 MEMB     106      PYPG     H3S      HAL2     0.900000E-01   1.00800           0
     13109 MEMB     106      PYPG     C24      CTL2    -0.180000       12.0110           0
     13110 MEMB     106      PYPG     H4R      HAL2     0.900000E-01   1.00800           0
     13111 MEMB     106      PYPG     H4S      HAL2     0.900000E-01   1.00800           0
     13112 MEMB     106      PYPG     C25      CTL2    -0.180000       12.0110           0
     13113 MEMB     106      PYPG     H5R      HAL2     0.900000E-01   1.00800           0
     13114 MEMB     106      PYPG     H5S      HAL2     0.900000E-01   1.00800           0
     13115 MEMB     106      PYPG     C26      CTL2    -0.180000       12.0110           0
     13116 MEMB     106      PYPG     H6R      HAL2     0.900000E-01   1.00800           0
     13117 MEMB     106      PYPG     H6S      HAL2     0.900000E-01   1.00800           0
     13118 MEMB     106      PYPG     C27      CTL2    -0.180000       12.0110           0
     13119 MEMB     106      PYPG     H7R      HAL2     0.900000E-01   1.00800           0
     13120 MEMB     106      PYPG     H7S      HAL2     0.900000E-01   1.00800           0
     13121 MEMB     106      PYPG     C28      CTL2    -0.180000       12.0110           0
     13122 MEMB     106      PYPG     H8R      HAL2     0.900000E-01   1.00800           0
     13123 MEMB     106      PYPG     H8S      HAL2     0.900000E-01   1.00800           0
     13124 MEMB     106      PYPG     C29      CEL1    -0.150000       12.0110           0
     13125 MEMB     106      PYPG     H9R      HEL1     0.150000       1.00800           0
     13126 MEMB     106      PYPG     C210     CEL1    -0.150000       12.0110           0
     13127 MEMB     106      PYPG     H10R     HEL1     0.150000       1.00800           0
     13128 MEMB     106      PYPG     C211     CTL2    -0.180000       12.0110           0
     13129 MEMB     106      PYPG     H11R     HAL2     0.900000E-01   1.00800           0
     13130 MEMB     106      PYPG     H11S     HAL2     0.900000E-01   1.00800           0
     13131 MEMB     106      PYPG     C212     CTL2    -0.180000       12.0110           0
     13132 MEMB     106      PYPG     H12R     HAL2     0.900000E-01   1.00800           0
     13133 MEMB     106      PYPG     H12S     HAL2     0.900000E-01   1.00800           0
     13134 MEMB     106      PYPG     C213     CTL2    -0.180000       12.0110           0
     13135 MEMB     106      PYPG     H13R     HAL2     0.900000E-01   1.00800           0
     13136 MEMB     106      PYPG     H13S     HAL2     0.900000E-01   1.00800           0
     13137 MEMB     106      PYPG     C214     CTL2    -0.180000       12.0110           0
     13138 MEMB     106      PYPG     H14R     HAL2     0.900000E-01   1.00800           0
     13139 MEMB     106      PYPG     H14S     HAL2     0.900000E-01   1.00800           0
     13140 MEMB     106      PYPG     C215     CTL2    -0.180000       12.0110           0
     13141 MEMB     106      PYPG     H15R     HAL2     0.900000E-01   1.00800           0
     13142 MEMB     106      PYPG     H15S     HAL2     0.900000E-01   1.00800           0
     13143 MEMB     106      PYPG     C216     CTL3    -0.270000       12.0110           0
     13144 MEMB     106      PYPG     H16R     HAL3     0.900000E-01   1.00800           0
     13145 MEMB     106      PYPG     H16S     HAL3     0.900000E-01   1.00800           0
     13146 MEMB     106      PYPG     H16T     HAL3     0.900000E-01   1.00800           0
     13147 MEMB     106      PYPG     C33      CTL2    -0.180000       12.0110           0
     13148 MEMB     106      PYPG     H3X      HAL2     0.900000E-01   1.00800           0
     13149 MEMB     106      PYPG     H3Y      HAL2     0.900000E-01   1.00800           0
     13150 MEMB     106      PYPG     C34      CTL2    -0.180000       12.0110           0
     13151 MEMB     106      PYPG     H4X      HAL2     0.900000E-01   1.00800           0
     13152 MEMB     106      PYPG     H4Y      HAL2     0.900000E-01   1.00800           0
     13153 MEMB     106      PYPG     C35      CTL2    -0.180000       12.0110           0
     13154 MEMB     106      PYPG     H5X      HAL2     0.900000E-01   1.00800           0
     13155 MEMB     106      PYPG     H5Y      HAL2     0.900000E-01   1.00800           0
     13156 MEMB     106      PYPG     C36      CTL2    -0.180000       12.0110           0
     13157 MEMB     106      PYPG     H6X      HAL2     0.900000E-01   1.00800           0
     13158 MEMB     106      PYPG     H6Y      HAL2     0.900000E-01   1.00800           0
     13159 MEMB     106      PYPG     C37      CTL2    -0.180000       12.0110           0
     13160 MEMB     106      PYPG     H7X      HAL2     0.900000E-01   1.00800           0
     13161 MEMB     106      PYPG     H7Y      HAL2     0.900000E-01   1.00800           0
     13162 MEMB     106      PYPG     C38      CTL2    -0.180000       12.0110           0
     13163 MEMB     106      PYPG     H8X      HAL2     0.900000E-01   1.00800           0
     13164 MEMB     106      PYPG     H8Y      HAL2     0.900000E-01   1.00800           0
     13165 MEMB     106      PYPG     C39      CTL2    -0.180000       12.0110           0
     13166 MEMB     106      PYPG     H9X      HAL2     0.900000E-01   1.00800           0
     13167 MEMB     106      PYPG     H9Y      HAL2     0.900000E-01   1.00800           0
     13168 MEMB     106      PYPG     C310     CTL2    -0.180000       12.0110           0
     13169 MEMB     106      PYPG     H10X     HAL2     0.900000E-01   1.00800           0
     13170 MEMB     106      PYPG     H10Y     HAL2     0.900000E-01   1.00800           0
     13171 MEMB     106      PYPG     C311     CTL2    -0.180000       12.0110           0
     13172 MEMB     106      PYPG     H11X     HAL2     0.900000E-01   1.00800           0
     13173 MEMB     106      PYPG     H11Y     HAL2     0.900000E-01   1.00800           0
     13174 MEMB     106      PYPG     C312     CTL2    -0.180000       12.0110           0
     13175 MEMB     106      PYPG     H12X     HAL2     0.900000E-01   1.00800           0
     13176 MEMB     106      PYPG     H12Y     HAL2     0.900000E-01   1.00800           0
     13177 MEMB     106      PYPG     C313     CTL2    -0.180000       12.0110           0
     13178 MEMB     106      PYPG     H13X     HAL2     0.900000E-01   1.00800           0
     13179 MEMB     106      PYPG     H13Y     HAL2     0.900000E-01   1.00800           0
     13180 MEMB     106      PYPG     C314     CTL2    -0.180000       12.0110           0
     13181 MEMB     106      PYPG     H14X     HAL2     0.900000E-01   1.00800           0
     13182 MEMB     106      PYPG     H14Y     HAL2     0.900000E-01   1.00800           0
     13183 MEMB     106      PYPG     C315     CTL2    -0.180000       12.0110           0
     13184 MEMB     106      PYPG     H15X     HAL2     0.900000E-01   1.00800           0
     13185 MEMB     106      PYPG     H15Y     HAL2     0.900000E-01   1.00800           0
     13186 MEMB     106      PYPG     C316     CTL3    -0.270000       12.0110           0
     13187 MEMB     106      PYPG     H16X     HAL3     0.900000E-01   1.00800           0
     13188 MEMB     106      PYPG     H16Y     HAL3     0.900000E-01   1.00800           0
     13189 MEMB     106      PYPG     H16Z     HAL3     0.900000E-01   1.00800           0
     13190 MEMB     107      POPE     N        NH3L    -0.300000       14.0070           0
     13191 MEMB     107      POPE     HN1      HCL      0.330000       1.00800           0
     13192 MEMB     107      POPE     HN2      HCL      0.330000       1.00800           0
     13193 MEMB     107      POPE     HN3      HCL      0.330000       1.00800           0
     13194 MEMB     107      POPE     C12      CTL2     0.130000       12.0110           0
     13195 MEMB     107      POPE     H12A     HAL2     0.900000E-01   1.00800           0
     13196 MEMB     107      POPE     H12B     HAL2     0.900000E-01   1.00800           0
     13197 MEMB     107      POPE     C11      CTL2    -0.800000E-01   12.0110           0
     13198 MEMB     107      POPE     H11A     HAL2     0.900000E-01   1.00800           0
     13199 MEMB     107      POPE     H11B     HAL2     0.900000E-01   1.00800           0
     13200 MEMB     107      POPE     P        PL        1.50000       30.9740           0
     13201 MEMB     107      POPE     O13      O2L     -0.780000       15.9994           0
     13202 MEMB     107      POPE     O14      O2L     -0.780000       15.9994           0
     13203 MEMB     107      POPE     O11      OSLP    -0.570000       15.9994           0
     13204 MEMB     107      POPE     O12      OSLP    -0.570000       15.9994           0
     13205 MEMB     107      POPE     C1       CTL2    -0.800000E-01   12.0110           0
     13206 MEMB     107      POPE     HA       HAL2     0.900000E-01   1.00800           0
     13207 MEMB     107      POPE     HB       HAL2     0.900000E-01   1.00800           0
     13208 MEMB     107      POPE     C2       CTL1     0.170000       12.0110           0
     13209 MEMB     107      POPE     HS       HAL1     0.900000E-01   1.00800           0
     13210 MEMB     107      POPE     O21      OSL     -0.490000       15.9994           0
     13211 MEMB     107      POPE     C21      CL       0.900000       12.0110           0
     13212 MEMB     107      POPE     O22      OBL     -0.630000       15.9994           0
     13213 MEMB     107      POPE     C22      CTL2    -0.220000       12.0110           0
     13214 MEMB     107      POPE     H2R      HAL2     0.900000E-01   1.00800           0
     13215 MEMB     107      POPE     H2S      HAL2     0.900000E-01   1.00800           0
     13216 MEMB     107      POPE     C3       CTL2     0.800000E-01   12.0110           0
     13217 MEMB     107      POPE     HX       HAL2     0.900000E-01   1.00800           0
     13218 MEMB     107      POPE     HY       HAL2     0.900000E-01   1.00800           0
     13219 MEMB     107      POPE     O31      OSL     -0.490000       15.9994           0
     13220 MEMB     107      POPE     C31      CL       0.900000       12.0110           0
     13221 MEMB     107      POPE     O32      OBL     -0.630000       15.9994           0
     13222 MEMB     107      POPE     C32      CTL2    -0.220000       12.0110           0
     13223 MEMB     107      POPE     H2X      HAL2     0.900000E-01   1.00800           0
     13224 MEMB     107      POPE     H2Y      HAL2     0.900000E-01   1.00800           0
     13225 MEMB     107      POPE     C23      CTL2    -0.180000       12.0110           0
     13226 MEMB     107      POPE     H3R      HAL2     0.900000E-01   1.00800           0
     13227 MEMB     107      POPE     H3S      HAL2     0.900000E-01   1.00800           0
     13228 MEMB     107      POPE     C24      CTL2    -0.180000       12.0110           0
     13229 MEMB     107      POPE     H4R      HAL2     0.900000E-01   1.00800           0
     13230 MEMB     107      POPE     H4S      HAL2     0.900000E-01   1.00800           0
     13231 MEMB     107      POPE     C25      CTL2    -0.180000       12.0110           0
     13232 MEMB     107      POPE     H5R      HAL2     0.900000E-01   1.00800           0
     13233 MEMB     107      POPE     H5S      HAL2     0.900000E-01   1.00800           0
     13234 MEMB     107      POPE     C26      CTL2    -0.180000       12.0110           0
     13235 MEMB     107      POPE     H6R      HAL2     0.900000E-01   1.00800           0
     13236 MEMB     107      POPE     H6S      HAL2     0.900000E-01   1.00800           0
     13237 MEMB     107      POPE     C27      CTL2    -0.180000       12.0110           0
     13238 MEMB     107      POPE     H7R      HAL2     0.900000E-01   1.00800           0
     13239 MEMB     107      POPE     H7S      HAL2     0.900000E-01   1.00800           0
     13240 MEMB     107      POPE     C28      CTL2    -0.180000       12.0110           0
     13241 MEMB     107      POPE     H8R      HAL2     0.900000E-01   1.00800           0
     13242 MEMB     107      POPE     H8S      HAL2     0.900000E-01   1.00800           0
     13243 MEMB     107      POPE     C29      CEL1    -0.150000       12.0110           0
     13244 MEMB     107      POPE     H91      HEL1     0.150000       1.00800           0
     13245 MEMB     107      POPE     C210     CEL1    -0.150000       12.0110           0
     13246 MEMB     107      POPE     H101     HEL1     0.150000       1.00800           0
     13247 MEMB     107      POPE     C211     CTL2    -0.180000       12.0110           0
     13248 MEMB     107      POPE     H11R     HAL2     0.900000E-01   1.00800           0
     13249 MEMB     107      POPE     H11S     HAL2     0.900000E-01   1.00800           0
     13250 MEMB     107      POPE     C212     CTL2    -0.180000       12.0110           0
     13251 MEMB     107      POPE     H12R     HAL2     0.900000E-01   1.00800           0
     13252 MEMB     107      POPE     H12S     HAL2     0.900000E-01   1.00800           0
     13253 MEMB     107      POPE     C213     CTL2    -0.180000       12.0110           0
     13254 MEMB     107      POPE     H13R     HAL2     0.900000E-01   1.00800           0
     13255 MEMB     107      POPE     H13S     HAL2     0.900000E-01   1.00800           0
     13256 MEMB     107      POPE     C214     CTL2    -0.180000       12.0110           0
     13257 MEMB     107      POPE     H14R     HAL2     0.900000E-01   1.00800           0
     13258 MEMB     107      POPE     H14S     HAL2     0.900000E-01   1.00800           0
     13259 MEMB     107      POPE     C215     CTL2    -0.180000       12.0110           0
     13260 MEMB     107      POPE     H15R     HAL2     0.900000E-01   1.00800           0
     13261 MEMB     107      POPE     H15S     HAL2     0.900000E-01   1.00800           0
     13262 MEMB     107      POPE     C216     CTL2    -0.180000       12.0110           0
     13263 MEMB     107      POPE     H16R     HAL2     0.900000E-01   1.00800           0
     13264 MEMB     107      POPE     H16S     HAL2     0.900000E-01   1.00800           0
     13265 MEMB     107      POPE     C217     CTL2    -0.180000       12.0110           0
     13266 MEMB     107      POPE     H17R     HAL2     0.900000E-01   1.00800           0
     13267 MEMB     107      POPE     H17S     HAL2     0.900000E-01   1.00800           0
     13268 MEMB     107      POPE     C218     CTL3    -0.270000       12.0110           0
     13269 MEMB     107      POPE     H18R     HAL3     0.900000E-01   1.00800           0
     13270 MEMB     107      POPE     H18S     HAL3     0.900000E-01   1.00800           0
     13271 MEMB     107      POPE     H18T     HAL3     0.900000E-01   1.00800           0
     13272 MEMB     107      POPE     C33      CTL2    -0.180000       12.0110           0
     13273 MEMB     107      POPE     H3X      HAL2     0.900000E-01   1.00800           0
     13274 MEMB     107      POPE     H3Y      HAL2     0.900000E-01   1.00800           0
     13275 MEMB     107      POPE     C34      CTL2    -0.180000       12.0110           0
     13276 MEMB     107      POPE     H4X      HAL2     0.900000E-01   1.00800           0
     13277 MEMB     107      POPE     H4Y      HAL2     0.900000E-01   1.00800           0
     13278 MEMB     107      POPE     C35      CTL2    -0.180000       12.0110           0
     13279 MEMB     107      POPE     H5X      HAL2     0.900000E-01   1.00800           0
     13280 MEMB     107      POPE     H5Y      HAL2     0.900000E-01   1.00800           0
     13281 MEMB     107      POPE     C36      CTL2    -0.180000       12.0110           0
     13282 MEMB     107      POPE     H6X      HAL2     0.900000E-01   1.00800           0
     13283 MEMB     107      POPE     H6Y      HAL2     0.900000E-01   1.00800           0
     13284 MEMB     107      POPE     C37      CTL2    -0.180000       12.0110           0
     13285 MEMB     107      POPE     H7X      HAL2     0.900000E-01   1.00800           0
     13286 MEMB     107      POPE     H7Y      HAL2     0.900000E-01   1.00800           0
     13287 MEMB     107      POPE     C38      CTL2    -0.180000       12.0110           0
     13288 MEMB     107      POPE     H8X      HAL2     0.900000E-01   1.00800           0
     13289 MEMB     107      POPE     H8Y      HAL2     0.900000E-01   1.00800           0
     13290 MEMB     107      POPE     C39      CTL2    -0.180000       12.0110           0
     13291 MEMB     107      POPE     H9X      HAL2     0.900000E-01   1.00800           0
     13292 MEMB     107      POPE     H9Y      HAL2     0.900000E-01   1.00800           0
     13293 MEMB     107      POPE     C310     CTL2    -0.180000       12.0110           0
     13294 MEMB     107      POPE     H10X     HAL2     0.900000E-01   1.00800           0
     13295 MEMB     107      POPE     H10Y     HAL2     0.900000E-01   1.00800           0
     13296 MEMB     107      POPE     C311     CTL2    -0.180000       12.0110           0
     13297 MEMB     107      POPE     H11X     HAL2     0.900000E-01   1.00800           0
     13298 MEMB     107      POPE     H11Y     HAL2     0.900000E-01   1.00800           0
     13299 MEMB     107      POPE     C312     CTL2    -0.180000       12.0110           0
     13300 MEMB     107      POPE     H12X     HAL2     0.900000E-01   1.00800           0
     13301 MEMB     107      POPE     H12Y     HAL2     0.900000E-01   1.00800           0
     13302 MEMB     107      POPE     C313     CTL2    -0.180000       12.0110           0
     13303 MEMB     107      POPE     H13X     HAL2     0.900000E-01   1.00800           0
     13304 MEMB     107      POPE     H13Y     HAL2     0.900000E-01   1.00800           0
     13305 MEMB     107      POPE     C314     CTL2    -0.180000       12.0110           0
     13306 MEMB     107      POPE     H14X     HAL2     0.900000E-01   1.00800           0
     13307 MEMB     107      POPE     H14Y     HAL2     0.900000E-01   1.00800           0
     13308 MEMB     107      POPE     C315     CTL2    -0.180000       12.0110           0
     13309 MEMB     107      POPE     H15X     HAL2     0.900000E-01   1.00800           0
     13310 MEMB     107      POPE     H15Y     HAL2     0.900000E-01   1.00800           0
     13311 MEMB     107      POPE     C316     CTL3    -0.270000       12.0110           0
     13312 MEMB     107      POPE     H16X     HAL3     0.900000E-01   1.00800           0
     13313 MEMB     107      POPE     H16Y     HAL3     0.900000E-01   1.00800           0
     13314 MEMB     107      POPE     H16Z     HAL3     0.900000E-01   1.00800           0
     13315 MEMB     108      PMPE     N        NH3L    -0.300000       14.0070           0
     13316 MEMB     108      PMPE     HN1      HCL      0.330000       1.00800           0
     13317 MEMB     108      PMPE     HN2      HCL      0.330000       1.00800           0
     13318 MEMB     108      PMPE     HN3      HCL      0.330000       1.00800           0
     13319 MEMB     108      PMPE     C12      CTL2     0.130000       12.0110           0
     13320 MEMB     108      PMPE     H12A     HAL2     0.900000E-01   1.00800           0
     13321 MEMB     108      PMPE     H12B     HAL2     0.900000E-01   1.00800           0
     13322 MEMB     108      PMPE     C11      CTL2    -0.800000E-01   12.0110           0
     13323 MEMB     108      PMPE     H11A     HAL2     0.900000E-01   1.00800           0
     13324 MEMB     108      PMPE     H11B     HAL2     0.900000E-01   1.00800           0
     13325 MEMB     108      PMPE     P        PL        1.50000       30.9740           0
     13326 MEMB     108      PMPE     O13      O2L     -0.780000       15.9994           0
     13327 MEMB     108      PMPE     O14      O2L     -0.780000       15.9994           0
     13328 MEMB     108      PMPE     O11      OSLP    -0.570000       15.9994           0
     13329 MEMB     108      PMPE     O12      OSLP    -0.570000       15.9994           0
     13330 MEMB     108      PMPE     C1       CTL2    -0.800000E-01   12.0110           0
     13331 MEMB     108      PMPE     HA       HAL2     0.900000E-01   1.00800           0
     13332 MEMB     108      PMPE     HB       HAL2     0.900000E-01   1.00800           0
     13333 MEMB     108      PMPE     C2       CTL1     0.170000       12.0110           0
     13334 MEMB     108      PMPE     HS       HAL1     0.900000E-01   1.00800           0
     13335 MEMB     108      PMPE     O21      OSL     -0.490000       15.9994           0
     13336 MEMB     108      PMPE     C21      CL       0.900000       12.0110           0
     13337 MEMB     108      PMPE     O22      OBL     -0.630000       15.9994           0
     13338 MEMB     108      PMPE     C22      CTL2    -0.220000       12.0110           0
     13339 MEMB     108      PMPE     H2R      HAL2     0.900000E-01   1.00800           0
     13340 MEMB     108      PMPE     H2S      HAL2     0.900000E-01   1.00800           0
     13341 MEMB     108      PMPE     C3       CTL2     0.800000E-01   12.0110           0
     13342 MEMB     108      PMPE     HX       HAL2     0.900000E-01   1.00800           0
     13343 MEMB     108      PMPE     HY       HAL2     0.900000E-01   1.00800           0
     13344 MEMB     108      PMPE     O31      OSL     -0.490000       15.9994           0
     13345 MEMB     108      PMPE     C31      CL       0.900000       12.0110           0
     13346 MEMB     108      PMPE     O32      OBL     -0.630000       15.9994           0
     13347 MEMB     108      PMPE     C32      CTL2    -0.220000       12.0110           0
     13348 MEMB     108      PMPE     H2X      HAL2     0.900000E-01   1.00800           0
     13349 MEMB     108      PMPE     H2Y      HAL2     0.900000E-01   1.00800           0
     13350 MEMB     108      PMPE     C23      CTL2    -0.180000       12.0110           0
     13351 MEMB     108      PMPE     H3R      HAL2     0.900000E-01   1.00800           0
     13352 MEMB     108      PMPE     H3S      HAL2     0.900000E-01   1.00800           0
     13353 MEMB     108      PMPE     C24      CTL2    -0.180000       12.0110           0
     13354 MEMB     108      PMPE     H4R      HAL2     0.900000E-01   1.00800           0
     13355 MEMB     108      PMPE     H4S      HAL2     0.900000E-01   1.00800           0
     13356 MEMB     108      PMPE     C25      CTL2    -0.180000       12.0110           0
     13357 MEMB     108      PMPE     H5R      HAL2     0.900000E-01   1.00800           0
     13358 MEMB     108      PMPE     H5S      HAL2     0.900000E-01   1.00800           0
     13359 MEMB     108      PMPE     C26      CTL2    -0.180000       12.0110           0
     13360 MEMB     108      PMPE     H6R      HAL2     0.900000E-01   1.00800           0
     13361 MEMB     108      PMPE     H6S      HAL2     0.900000E-01   1.00800           0
     13362 MEMB     108      PMPE     C27      CTL2    -0.180000       12.0110           0
     13363 MEMB     108      PMPE     H7R      HAL2     0.900000E-01   1.00800           0
     13364 MEMB     108      PMPE     H7S      HAL2     0.900000E-01   1.00800           0
     13365 MEMB     108      PMPE     C28      CTL2    -0.180000       12.0110           0
     13366 MEMB     108      PMPE     H8R      HAL2     0.900000E-01   1.00800           0
     13367 MEMB     108      PMPE     H8S      HAL2     0.900000E-01   1.00800           0
     13368 MEMB     108      PMPE     C29      CG3RC1  -0.900000E-01   12.0110           0
     13369 MEMB     108      PMPE     H9R      HGA1     0.900000E-01   1.00800           0
     13370 MEMB     108      PMPE     C217     CG3C31  -0.180000       12.0110           0
     13371 MEMB     108      PMPE     H17R     HGA2     0.900000E-01   1.00800           0
     13372 MEMB     108      PMPE     H17S     HGA2     0.900000E-01   1.00800           0
     13373 MEMB     108      PMPE     C210     CG3RC1  -0.900000E-01   12.0110           0
     13374 MEMB     108      PMPE     H10R     HGA1     0.900000E-01   1.00800           0
     13375 MEMB     108      PMPE     C211     CTL2    -0.180000       12.0110           0
     13376 MEMB     108      PMPE     H11R     HAL2     0.900000E-01   1.00800           0
     13377 MEMB     108      PMPE     H11S     HAL2     0.900000E-01   1.00800           0
     13378 MEMB     108      PMPE     C212     CTL2    -0.180000       12.0110           0
     13379 MEMB     108      PMPE     H12R     HAL2     0.900000E-01   1.00800           0
     13380 MEMB     108      PMPE     H12S     HAL2     0.900000E-01   1.00800           0
     13381 MEMB     108      PMPE     C213     CTL2    -0.180000       12.0110           0
     13382 MEMB     108      PMPE     H13R     HAL2     0.900000E-01   1.00800           0
     13383 MEMB     108      PMPE     H13S     HAL2     0.900000E-01   1.00800           0
     13384 MEMB     108      PMPE     C214     CTL2    -0.180000       12.0110           0
     13385 MEMB     108      PMPE     H14R     HAL2     0.900000E-01   1.00800           0
     13386 MEMB     108      PMPE     H14S     HAL2     0.900000E-01   1.00800           0
     13387 MEMB     108      PMPE     C215     CTL2    -0.180000       12.0110           0
     13388 MEMB     108      PMPE     H15R     HAL2     0.900000E-01   1.00800           0
     13389 MEMB     108      PMPE     H15S     HAL2     0.900000E-01   1.00800           0
     13390 MEMB     108      PMPE     C216     CTL3    -0.270000       12.0110           0
     13391 MEMB     108      PMPE     H16R     HAL3     0.900000E-01   1.00800           0
     13392 MEMB     108      PMPE     H16S     HAL3     0.900000E-01   1.00800           0
     13393 MEMB     108      PMPE     H16T     HAL3     0.900000E-01   1.00800           0
     13394 MEMB     108      PMPE     C33      CTL2    -0.180000       12.0110           0
     13395 MEMB     108      PMPE     H3X      HAL2     0.900000E-01   1.00800           0
     13396 MEMB     108      PMPE     H3Y      HAL2     0.900000E-01   1.00800           0
     13397 MEMB     108      PMPE     C34      CTL2    -0.180000       12.0110           0
     13398 MEMB     108      PMPE     H4X      HAL2     0.900000E-01   1.00800           0
     13399 MEMB     108      PMPE     H4Y      HAL2     0.900000E-01   1.00800           0
     13400 MEMB     108      PMPE     C35      CTL2    -0.180000       12.0110           0
     13401 MEMB     108      PMPE     H5X      HAL2     0.900000E-01   1.00800           0
     13402 MEMB     108      PMPE     H5Y      HAL2     0.900000E-01   1.00800           0
     13403 MEMB     108      PMPE     C36      CTL2    -0.180000       12.0110           0
     13404 MEMB     108      PMPE     H6X      HAL2     0.900000E-01   1.00800           0
     13405 MEMB     108      PMPE     H6Y      HAL2     0.900000E-01   1.00800           0
     13406 MEMB     108      PMPE     C37      CTL2    -0.180000       12.0110           0
     13407 MEMB     108      PMPE     H7X      HAL2     0.900000E-01   1.00800           0
     13408 MEMB     108      PMPE     H7Y      HAL2     0.900000E-01   1.00800           0
     13409 MEMB     108      PMPE     C38      CTL2    -0.180000       12.0110           0
     13410 MEMB     108      PMPE     H8X      HAL2     0.900000E-01   1.00800           0
     13411 MEMB     108      PMPE     H8Y      HAL2     0.900000E-01   1.00800           0
     13412 MEMB     108      PMPE     C39      CTL2    -0.180000       12.0110           0
     13413 MEMB     108      PMPE     H9X      HAL2     0.900000E-01   1.00800           0
     13414 MEMB     108      PMPE     H9Y      HAL2     0.900000E-01   1.00800           0
     13415 MEMB     108      PMPE     C310     CTL2    -0.180000       12.0110           0
     13416 MEMB     108      PMPE     H10X     HAL2     0.900000E-01   1.00800           0
     13417 MEMB     108      PMPE     H10Y     HAL2     0.900000E-01   1.00800           0
     13418 MEMB     108      PMPE     C311     CTL2    -0.180000       12.0110           0
     13419 MEMB     108      PMPE     H11X     HAL2     0.900000E-01   1.00800           0
     13420 MEMB     108      PMPE     H11Y     HAL2     0.900000E-01   1.00800           0
     13421 MEMB     108      PMPE     C312     CTL2    -0.180000       12.0110           0
     13422 MEMB     108      PMPE     H12X     HAL2     0.900000E-01   1.00800           0
     13423 MEMB     108      PMPE     H12Y     HAL2     0.900000E-01   1.00800           0
     13424 MEMB     108      PMPE     C313     CTL2    -0.180000       12.0110           0
     13425 MEMB     108      PMPE     H13X     HAL2     0.900000E-01   1.00800           0
     13426 MEMB     108      PMPE     H13Y     HAL2     0.900000E-01   1.00800           0
     13427 MEMB     108      PMPE     C314     CTL2    -0.180000       12.0110           0
     13428 MEMB     108      PMPE     H14X     HAL2     0.900000E-01   1.00800           0
     13429 MEMB     108      PMPE     H14Y     HAL2     0.900000E-01   1.00800           0
     13430 MEMB     108      PMPE     C315     CTL2    -0.180000       12.0110           0
     13431 MEMB     108      PMPE     H15X     HAL2     0.900000E-01   1.00800           0
     13432 MEMB     108      PMPE     H15Y     HAL2     0.900000E-01   1.00800           0
     13433 MEMB     108      PMPE     C316     CTL3    -0.270000       12.0110           0
     13434 MEMB     108      PMPE     H16X     HAL3     0.900000E-01   1.00800           0
     13435 MEMB     108      PMPE     H16Y     HAL3     0.900000E-01   1.00800           0
     13436 MEMB     108      PMPE     H16Z     HAL3     0.900000E-01   1.00800           0
     13437 MEMB     109      POPE     N        NH3L    -0.300000       14.0070           0
     13438 MEMB     109      POPE     HN1      HCL      0.330000       1.00800           0
     13439 MEMB     109      POPE     HN2      HCL      0.330000       1.00800           0
     13440 MEMB     109      POPE     HN3      HCL      0.330000       1.00800           0
     13441 MEMB     109      POPE     C12      CTL2     0.130000       12.0110           0
     13442 MEMB     109      POPE     H12A     HAL2     0.900000E-01   1.00800           0
     13443 MEMB     109      POPE     H12B     HAL2     0.900000E-01   1.00800           0
     13444 MEMB     109      POPE     C11      CTL2    -0.800000E-01   12.0110           0
     13445 MEMB     109      POPE     H11A     HAL2     0.900000E-01   1.00800           0
     13446 MEMB     109      POPE     H11B     HAL2     0.900000E-01   1.00800           0
     13447 MEMB     109      POPE     P        PL        1.50000       30.9740           0
     13448 MEMB     109      POPE     O13      O2L     -0.780000       15.9994           0
     13449 MEMB     109      POPE     O14      O2L     -0.780000       15.9994           0
     13450 MEMB     109      POPE     O11      OSLP    -0.570000       15.9994           0
     13451 MEMB     109      POPE     O12      OSLP    -0.570000       15.9994           0
     13452 MEMB     109      POPE     C1       CTL2    -0.800000E-01   12.0110           0
     13453 MEMB     109      POPE     HA       HAL2     0.900000E-01   1.00800           0
     13454 MEMB     109      POPE     HB       HAL2     0.900000E-01   1.00800           0
     13455 MEMB     109      POPE     C2       CTL1     0.170000       12.0110           0
     13456 MEMB     109      POPE     HS       HAL1     0.900000E-01   1.00800           0
     13457 MEMB     109      POPE     O21      OSL     -0.490000       15.9994           0
     13458 MEMB     109      POPE     C21      CL       0.900000       12.0110           0
     13459 MEMB     109      POPE     O22      OBL     -0.630000       15.9994           0
     13460 MEMB     109      POPE     C22      CTL2    -0.220000       12.0110           0
     13461 MEMB     109      POPE     H2R      HAL2     0.900000E-01   1.00800           0
     13462 MEMB     109      POPE     H2S      HAL2     0.900000E-01   1.00800           0
     13463 MEMB     109      POPE     C3       CTL2     0.800000E-01   12.0110           0
     13464 MEMB     109      POPE     HX       HAL2     0.900000E-01   1.00800           0
     13465 MEMB     109      POPE     HY       HAL2     0.900000E-01   1.00800           0
     13466 MEMB     109      POPE     O31      OSL     -0.490000       15.9994           0
     13467 MEMB     109      POPE     C31      CL       0.900000       12.0110           0
     13468 MEMB     109      POPE     O32      OBL     -0.630000       15.9994           0
     13469 MEMB     109      POPE     C32      CTL2    -0.220000       12.0110           0
     13470 MEMB     109      POPE     H2X      HAL2     0.900000E-01   1.00800           0
     13471 MEMB     109      POPE     H2Y      HAL2     0.900000E-01   1.00800           0
     13472 MEMB     109      POPE     C23      CTL2    -0.180000       12.0110           0
     13473 MEMB     109      POPE     H3R      HAL2     0.900000E-01   1.00800           0
     13474 MEMB     109      POPE     H3S      HAL2     0.900000E-01   1.00800           0
     13475 MEMB     109      POPE     C24      CTL2    -0.180000       12.0110           0
     13476 MEMB     109      POPE     H4R      HAL2     0.900000E-01   1.00800           0
     13477 MEMB     109      POPE     H4S      HAL2     0.900000E-01   1.00800           0
     13478 MEMB     109      POPE     C25      CTL2    -0.180000       12.0110           0
     13479 MEMB     109      POPE     H5R      HAL2     0.900000E-01   1.00800           0
     13480 MEMB     109      POPE     H5S      HAL2     0.900000E-01   1.00800           0
     13481 MEMB     109      POPE     C26      CTL2    -0.180000       12.0110           0
     13482 MEMB     109      POPE     H6R      HAL2     0.900000E-01   1.00800           0
     13483 MEMB     109      POPE     H6S      HAL2     0.900000E-01   1.00800           0
     13484 MEMB     109      POPE     C27      CTL2    -0.180000       12.0110           0
     13485 MEMB     109      POPE     H7R      HAL2     0.900000E-01   1.00800           0
     13486 MEMB     109      POPE     H7S      HAL2     0.900000E-01   1.00800           0
     13487 MEMB     109      POPE     C28      CTL2    -0.180000       12.0110           0
     13488 MEMB     109      POPE     H8R      HAL2     0.900000E-01   1.00800           0
     13489 MEMB     109      POPE     H8S      HAL2     0.900000E-01   1.00800           0
     13490 MEMB     109      POPE     C29      CEL1    -0.150000       12.0110           0
     13491 MEMB     109      POPE     H91      HEL1     0.150000       1.00800           0
     13492 MEMB     109      POPE     C210     CEL1    -0.150000       12.0110           0
     13493 MEMB     109      POPE     H101     HEL1     0.150000       1.00800           0
     13494 MEMB     109      POPE     C211     CTL2    -0.180000       12.0110           0
     13495 MEMB     109      POPE     H11R     HAL2     0.900000E-01   1.00800           0
     13496 MEMB     109      POPE     H11S     HAL2     0.900000E-01   1.00800           0
     13497 MEMB     109      POPE     C212     CTL2    -0.180000       12.0110           0
     13498 MEMB     109      POPE     H12R     HAL2     0.900000E-01   1.00800           0
     13499 MEMB     109      POPE     H12S     HAL2     0.900000E-01   1.00800           0
     13500 MEMB     109      POPE     C213     CTL2    -0.180000       12.0110           0
     13501 MEMB     109      POPE     H13R     HAL2     0.900000E-01   1.00800           0
     13502 MEMB     109      POPE     H13S     HAL2     0.900000E-01   1.00800           0
     13503 MEMB     109      POPE     C214     CTL2    -0.180000       12.0110           0
     13504 MEMB     109      POPE     H14R     HAL2     0.900000E-01   1.00800           0
     13505 MEMB     109      POPE     H14S     HAL2     0.900000E-01   1.00800           0
     13506 MEMB     109      POPE     C215     CTL2    -0.180000       12.0110           0
     13507 MEMB     109      POPE     H15R     HAL2     0.900000E-01   1.00800           0
     13508 MEMB     109      POPE     H15S     HAL2     0.900000E-01   1.00800           0
     13509 MEMB     109      POPE     C216     CTL2    -0.180000       12.0110           0
     13510 MEMB     109      POPE     H16R     HAL2     0.900000E-01   1.00800           0
     13511 MEMB     109      POPE     H16S     HAL2     0.900000E-01   1.00800           0
     13512 MEMB     109      POPE     C217     CTL2    -0.180000       12.0110           0
     13513 MEMB     109      POPE     H17R     HAL2     0.900000E-01   1.00800           0
     13514 MEMB     109      POPE     H17S     HAL2     0.900000E-01   1.00800           0
     13515 MEMB     109      POPE     C218     CTL3    -0.270000       12.0110           0
     13516 MEMB     109      POPE     H18R     HAL3     0.900000E-01   1.00800           0
     13517 MEMB     109      POPE     H18S     HAL3     0.900000E-01   1.00800           0
     13518 MEMB     109      POPE     H18T     HAL3     0.900000E-01   1.00800           0
     13519 MEMB     109      POPE     C33      CTL2    -0.180000       12.0110           0
     13520 MEMB     109      POPE     H3X      HAL2     0.900000E-01   1.00800           0
     13521 MEMB     109      POPE     H3Y      HAL2     0.900000E-01   1.00800           0
     13522 MEMB     109      POPE     C34      CTL2    -0.180000       12.0110           0
     13523 MEMB     109      POPE     H4X      HAL2     0.900000E-01   1.00800           0
     13524 MEMB     109      POPE     H4Y      HAL2     0.900000E-01   1.00800           0
     13525 MEMB     109      POPE     C35      CTL2    -0.180000       12.0110           0
     13526 MEMB     109      POPE     H5X      HAL2     0.900000E-01   1.00800           0
     13527 MEMB     109      POPE     H5Y      HAL2     0.900000E-01   1.00800           0
     13528 MEMB     109      POPE     C36      CTL2    -0.180000       12.0110           0
     13529 MEMB     109      POPE     H6X      HAL2     0.900000E-01   1.00800           0
     13530 MEMB     109      POPE     H6Y      HAL2     0.900000E-01   1.00800           0
     13531 MEMB     109      POPE     C37      CTL2    -0.180000       12.0110           0
     13532 MEMB     109      POPE     H7X      HAL2     0.900000E-01   1.00800           0
     13533 MEMB     109      POPE     H7Y      HAL2     0.900000E-01   1.00800           0
     13534 MEMB     109      POPE     C38      CTL2    -0.180000       12.0110           0
     13535 MEMB     109      POPE     H8X      HAL2     0.900000E-01   1.00800           0
     13536 MEMB     109      POPE     H8Y      HAL2     0.900000E-01   1.00800           0
     13537 MEMB     109      POPE     C39      CTL2    -0.180000       12.0110           0
     13538 MEMB     109      POPE     H9X      HAL2     0.900000E-01   1.00800           0
     13539 MEMB     109      POPE     H9Y      HAL2     0.900000E-01   1.00800           0
     13540 MEMB     109      POPE     C310     CTL2    -0.180000       12.0110           0
     13541 MEMB     109      POPE     H10X     HAL2     0.900000E-01   1.00800           0
     13542 MEMB     109      POPE     H10Y     HAL2     0.900000E-01   1.00800           0
     13543 MEMB     109      POPE     C311     CTL2    -0.180000       12.0110           0
     13544 MEMB     109      POPE     H11X     HAL2     0.900000E-01   1.00800           0
     13545 MEMB     109      POPE     H11Y     HAL2     0.900000E-01   1.00800           0
     13546 MEMB     109      POPE     C312     CTL2    -0.180000       12.0110           0
     13547 MEMB     109      POPE     H12X     HAL2     0.900000E-01   1.00800           0
     13548 MEMB     109      POPE     H12Y     HAL2     0.900000E-01   1.00800           0
     13549 MEMB     109      POPE     C313     CTL2    -0.180000       12.0110           0
     13550 MEMB     109      POPE     H13X     HAL2     0.900000E-01   1.00800           0
     13551 MEMB     109      POPE     H13Y     HAL2     0.900000E-01   1.00800           0
     13552 MEMB     109      POPE     C314     CTL2    -0.180000       12.0110           0
     13553 MEMB     109      POPE     H14X     HAL2     0.900000E-01   1.00800           0
     13554 MEMB     109      POPE     H14Y     HAL2     0.900000E-01   1.00800           0
     13555 MEMB     109      POPE     C315     CTL2    -0.180000       12.0110           0
     13556 MEMB     109      POPE     H15X     HAL2     0.900000E-01   1.00800           0
     13557 MEMB     109      POPE     H15Y     HAL2     0.900000E-01   1.00800           0
     13558 MEMB     109      POPE     C316     CTL3    -0.270000       12.0110           0
     13559 MEMB     109      POPE     H16X     HAL3     0.900000E-01   1.00800           0
     13560 MEMB     109      POPE     H16Y     HAL3     0.900000E-01   1.00800           0
     13561 MEMB     109      POPE     H16Z     HAL3     0.900000E-01   1.00800           0
     13562 MEMB     110      PMPE     N        NH3L    -0.300000       14.0070           0
     13563 MEMB     110      PMPE     HN1      HCL      0.330000       1.00800           0
     13564 MEMB     110      PMPE     HN2      HCL      0.330000       1.00800           0
     13565 MEMB     110      PMPE     HN3      HCL      0.330000       1.00800           0
     13566 MEMB     110      PMPE     C12      CTL2     0.130000       12.0110           0
     13567 MEMB     110      PMPE     H12A     HAL2     0.900000E-01   1.00800           0
     13568 MEMB     110      PMPE     H12B     HAL2     0.900000E-01   1.00800           0
     13569 MEMB     110      PMPE     C11      CTL2    -0.800000E-01   12.0110           0
     13570 MEMB     110      PMPE     H11A     HAL2     0.900000E-01   1.00800           0
     13571 MEMB     110      PMPE     H11B     HAL2     0.900000E-01   1.00800           0
     13572 MEMB     110      PMPE     P        PL        1.50000       30.9740           0
     13573 MEMB     110      PMPE     O13      O2L     -0.780000       15.9994           0
     13574 MEMB     110      PMPE     O14      O2L     -0.780000       15.9994           0
     13575 MEMB     110      PMPE     O11      OSLP    -0.570000       15.9994           0
     13576 MEMB     110      PMPE     O12      OSLP    -0.570000       15.9994           0
     13577 MEMB     110      PMPE     C1       CTL2    -0.800000E-01   12.0110           0
     13578 MEMB     110      PMPE     HA       HAL2     0.900000E-01   1.00800           0
     13579 MEMB     110      PMPE     HB       HAL2     0.900000E-01   1.00800           0
     13580 MEMB     110      PMPE     C2       CTL1     0.170000       12.0110           0
     13581 MEMB     110      PMPE     HS       HAL1     0.900000E-01   1.00800           0
     13582 MEMB     110      PMPE     O21      OSL     -0.490000       15.9994           0
     13583 MEMB     110      PMPE     C21      CL       0.900000       12.0110           0
     13584 MEMB     110      PMPE     O22      OBL     -0.630000       15.9994           0
     13585 MEMB     110      PMPE     C22      CTL2    -0.220000       12.0110           0
     13586 MEMB     110      PMPE     H2R      HAL2     0.900000E-01   1.00800           0
     13587 MEMB     110      PMPE     H2S      HAL2     0.900000E-01   1.00800           0
     13588 MEMB     110      PMPE     C3       CTL2     0.800000E-01   12.0110           0
     13589 MEMB     110      PMPE     HX       HAL2     0.900000E-01   1.00800           0
     13590 MEMB     110      PMPE     HY       HAL2     0.900000E-01   1.00800           0
     13591 MEMB     110      PMPE     O31      OSL     -0.490000       15.9994           0
     13592 MEMB     110      PMPE     C31      CL       0.900000       12.0110           0
     13593 MEMB     110      PMPE     O32      OBL     -0.630000       15.9994           0
     13594 MEMB     110      PMPE     C32      CTL2    -0.220000       12.0110           0
     13595 MEMB     110      PMPE     H2X      HAL2     0.900000E-01   1.00800           0
     13596 MEMB     110      PMPE     H2Y      HAL2     0.900000E-01   1.00800           0
     13597 MEMB     110      PMPE     C23      CTL2    -0.180000       12.0110           0
     13598 MEMB     110      PMPE     H3R      HAL2     0.900000E-01   1.00800           0
     13599 MEMB     110      PMPE     H3S      HAL2     0.900000E-01   1.00800           0
     13600 MEMB     110      PMPE     C24      CTL2    -0.180000       12.0110           0
     13601 MEMB     110      PMPE     H4R      HAL2     0.900000E-01   1.00800           0
     13602 MEMB     110      PMPE     H4S      HAL2     0.900000E-01   1.00800           0
     13603 MEMB     110      PMPE     C25      CTL2    -0.180000       12.0110           0
     13604 MEMB     110      PMPE     H5R      HAL2     0.900000E-01   1.00800           0
     13605 MEMB     110      PMPE     H5S      HAL2     0.900000E-01   1.00800           0
     13606 MEMB     110      PMPE     C26      CTL2    -0.180000       12.0110           0
     13607 MEMB     110      PMPE     H6R      HAL2     0.900000E-01   1.00800           0
     13608 MEMB     110      PMPE     H6S      HAL2     0.900000E-01   1.00800           0
     13609 MEMB     110      PMPE     C27      CTL2    -0.180000       12.0110           0
     13610 MEMB     110      PMPE     H7R      HAL2     0.900000E-01   1.00800           0
     13611 MEMB     110      PMPE     H7S      HAL2     0.900000E-01   1.00800           0
     13612 MEMB     110      PMPE     C28      CTL2    -0.180000       12.0110           0
     13613 MEMB     110      PMPE     H8R      HAL2     0.900000E-01   1.00800           0
     13614 MEMB     110      PMPE     H8S      HAL2     0.900000E-01   1.00800           0
     13615 MEMB     110      PMPE     C29      CG3RC1  -0.900000E-01   12.0110           0
     13616 MEMB     110      PMPE     H9R      HGA1     0.900000E-01   1.00800           0
     13617 MEMB     110      PMPE     C217     CG3C31  -0.180000       12.0110           0
     13618 MEMB     110      PMPE     H17R     HGA2     0.900000E-01   1.00800           0
     13619 MEMB     110      PMPE     H17S     HGA2     0.900000E-01   1.00800           0
     13620 MEMB     110      PMPE     C210     CG3RC1  -0.900000E-01   12.0110           0
     13621 MEMB     110      PMPE     H10R     HGA1     0.900000E-01   1.00800           0
     13622 MEMB     110      PMPE     C211     CTL2    -0.180000       12.0110           0
     13623 MEMB     110      PMPE     H11R     HAL2     0.900000E-01   1.00800           0
     13624 MEMB     110      PMPE     H11S     HAL2     0.900000E-01   1.00800           0
     13625 MEMB     110      PMPE     C212     CTL2    -0.180000       12.0110           0
     13626 MEMB     110      PMPE     H12R     HAL2     0.900000E-01   1.00800           0
     13627 MEMB     110      PMPE     H12S     HAL2     0.900000E-01   1.00800           0
     13628 MEMB     110      PMPE     C213     CTL2    -0.180000       12.0110           0
     13629 MEMB     110      PMPE     H13R     HAL2     0.900000E-01   1.00800           0
     13630 MEMB     110      PMPE     H13S     HAL2     0.900000E-01   1.00800           0
     13631 MEMB     110      PMPE     C214     CTL2    -0.180000       12.0110           0
     13632 MEMB     110      PMPE     H14R     HAL2     0.900000E-01   1.00800           0
     13633 MEMB     110      PMPE     H14S     HAL2     0.900000E-01   1.00800           0
     13634 MEMB     110      PMPE     C215     CTL2    -0.180000       12.0110           0
     13635 MEMB     110      PMPE     H15R     HAL2     0.900000E-01   1.00800           0
     13636 MEMB     110      PMPE     H15S     HAL2     0.900000E-01   1.00800           0
     13637 MEMB     110      PMPE     C216     CTL3    -0.270000       12.0110           0
     13638 MEMB     110      PMPE     H16R     HAL3     0.900000E-01   1.00800           0
     13639 MEMB     110      PMPE     H16S     HAL3     0.900000E-01   1.00800           0
     13640 MEMB     110      PMPE     H16T     HAL3     0.900000E-01   1.00800           0
     13641 MEMB     110      PMPE     C33      CTL2    -0.180000       12.0110           0
     13642 MEMB     110      PMPE     H3X      HAL2     0.900000E-01   1.00800           0
     13643 MEMB     110      PMPE     H3Y      HAL2     0.900000E-01   1.00800           0
     13644 MEMB     110      PMPE     C34      CTL2    -0.180000       12.0110           0
     13645 MEMB     110      PMPE     H4X      HAL2     0.900000E-01   1.00800           0
     13646 MEMB     110      PMPE     H4Y      HAL2     0.900000E-01   1.00800           0
     13647 MEMB     110      PMPE     C35      CTL2    -0.180000       12.0110           0
     13648 MEMB     110      PMPE     H5X      HAL2     0.900000E-01   1.00800           0
     13649 MEMB     110      PMPE     H5Y      HAL2     0.900000E-01   1.00800           0
     13650 MEMB     110      PMPE     C36      CTL2    -0.180000       12.0110           0
     13651 MEMB     110      PMPE     H6X      HAL2     0.900000E-01   1.00800           0
     13652 MEMB     110      PMPE     H6Y      HAL2     0.900000E-01   1.00800           0
     13653 MEMB     110      PMPE     C37      CTL2    -0.180000       12.0110           0
     13654 MEMB     110      PMPE     H7X      HAL2     0.900000E-01   1.00800           0
     13655 MEMB     110      PMPE     H7Y      HAL2     0.900000E-01   1.00800           0
     13656 MEMB     110      PMPE     C38      CTL2    -0.180000       12.0110           0
     13657 MEMB     110      PMPE     H8X      HAL2     0.900000E-01   1.00800           0
     13658 MEMB     110      PMPE     H8Y      HAL2     0.900000E-01   1.00800           0
     13659 MEMB     110      PMPE     C39      CTL2    -0.180000       12.0110           0
     13660 MEMB     110      PMPE     H9X      HAL2     0.900000E-01   1.00800           0
     13661 MEMB     110      PMPE     H9Y      HAL2     0.900000E-01   1.00800           0
     13662 MEMB     110      PMPE     C310     CTL2    -0.180000       12.0110           0
     13663 MEMB     110      PMPE     H10X     HAL2     0.900000E-01   1.00800           0
     13664 MEMB     110      PMPE     H10Y     HAL2     0.900000E-01   1.00800           0
     13665 MEMB     110      PMPE     C311     CTL2    -0.180000       12.0110           0
     13666 MEMB     110      PMPE     H11X     HAL2     0.900000E-01   1.00800           0
     13667 MEMB     110      PMPE     H11Y     HAL2     0.900000E-01   1.00800           0
     13668 MEMB     110      PMPE     C312     CTL2    -0.180000       12.0110           0
     13669 MEMB     110      PMPE     H12X     HAL2     0.900000E-01   1.00800           0
     13670 MEMB     110      PMPE     H12Y     HAL2     0.900000E-01   1.00800           0
     13671 MEMB     110      PMPE     C313     CTL2    -0.180000       12.0110           0
     13672 MEMB     110      PMPE     H13X     HAL2     0.900000E-01   1.00800           0
     13673 MEMB     110      PMPE     H13Y     HAL2     0.900000E-01   1.00800           0
     13674 MEMB     110      PMPE     C314     CTL2    -0.180000       12.0110           0
     13675 MEMB     110      PMPE     H14X     HAL2     0.900000E-01   1.00800           0
     13676 MEMB     110      PMPE     H14Y     HAL2     0.900000E-01   1.00800           0
     13677 MEMB     110      PMPE     C315     CTL2    -0.180000       12.0110           0
     13678 MEMB     110      PMPE     H15X     HAL2     0.900000E-01   1.00800           0
     13679 MEMB     110      PMPE     H15Y     HAL2     0.900000E-01   1.00800           0
     13680 MEMB     110      PMPE     C316     CTL3    -0.270000       12.0110           0
     13681 MEMB     110      PMPE     H16X     HAL3     0.900000E-01   1.00800           0
     13682 MEMB     110      PMPE     H16Y     HAL3     0.900000E-01   1.00800           0
     13683 MEMB     110      PMPE     H16Z     HAL3     0.900000E-01   1.00800           0
     13684 MEMB     111      PMPE     N        NH3L    -0.300000       14.0070           0
     13685 MEMB     111      PMPE     HN1      HCL      0.330000       1.00800           0
     13686 MEMB     111      PMPE     HN2      HCL      0.330000       1.00800           0
     13687 MEMB     111      PMPE     HN3      HCL      0.330000       1.00800           0
     13688 MEMB     111      PMPE     C12      CTL2     0.130000       12.0110           0
     13689 MEMB     111      PMPE     H12A     HAL2     0.900000E-01   1.00800           0
     13690 MEMB     111      PMPE     H12B     HAL2     0.900000E-01   1.00800           0
     13691 MEMB     111      PMPE     C11      CTL2    -0.800000E-01   12.0110           0
     13692 MEMB     111      PMPE     H11A     HAL2     0.900000E-01   1.00800           0
     13693 MEMB     111      PMPE     H11B     HAL2     0.900000E-01   1.00800           0
     13694 MEMB     111      PMPE     P        PL        1.50000       30.9740           0
     13695 MEMB     111      PMPE     O13      O2L     -0.780000       15.9994           0
     13696 MEMB     111      PMPE     O14      O2L     -0.780000       15.9994           0
     13697 MEMB     111      PMPE     O11      OSLP    -0.570000       15.9994           0
     13698 MEMB     111      PMPE     O12      OSLP    -0.570000       15.9994           0
     13699 MEMB     111      PMPE     C1       CTL2    -0.800000E-01   12.0110           0
     13700 MEMB     111      PMPE     HA       HAL2     0.900000E-01   1.00800           0
     13701 MEMB     111      PMPE     HB       HAL2     0.900000E-01   1.00800           0
     13702 MEMB     111      PMPE     C2       CTL1     0.170000       12.0110           0
     13703 MEMB     111      PMPE     HS       HAL1     0.900000E-01   1.00800           0
     13704 MEMB     111      PMPE     O21      OSL     -0.490000       15.9994           0
     13705 MEMB     111      PMPE     C21      CL       0.900000       12.0110           0
     13706 MEMB     111      PMPE     O22      OBL     -0.630000       15.9994           0
     13707 MEMB     111      PMPE     C22      CTL2    -0.220000       12.0110           0
     13708 MEMB     111      PMPE     H2R      HAL2     0.900000E-01   1.00800           0
     13709 MEMB     111      PMPE     H2S      HAL2     0.900000E-01   1.00800           0
     13710 MEMB     111      PMPE     C3       CTL2     0.800000E-01   12.0110           0
     13711 MEMB     111      PMPE     HX       HAL2     0.900000E-01   1.00800           0
     13712 MEMB     111      PMPE     HY       HAL2     0.900000E-01   1.00800           0
     13713 MEMB     111      PMPE     O31      OSL     -0.490000       15.9994           0
     13714 MEMB     111      PMPE     C31      CL       0.900000       12.0110           0
     13715 MEMB     111      PMPE     O32      OBL     -0.630000       15.9994           0
     13716 MEMB     111      PMPE     C32      CTL2    -0.220000       12.0110           0
     13717 MEMB     111      PMPE     H2X      HAL2     0.900000E-01   1.00800           0
     13718 MEMB     111      PMPE     H2Y      HAL2     0.900000E-01   1.00800           0
     13719 MEMB     111      PMPE     C23      CTL2    -0.180000       12.0110           0
     13720 MEMB     111      PMPE     H3R      HAL2     0.900000E-01   1.00800           0
     13721 MEMB     111      PMPE     H3S      HAL2     0.900000E-01   1.00800           0
     13722 MEMB     111      PMPE     C24      CTL2    -0.180000       12.0110           0
     13723 MEMB     111      PMPE     H4R      HAL2     0.900000E-01   1.00800           0
     13724 MEMB     111      PMPE     H4S      HAL2     0.900000E-01   1.00800           0
     13725 MEMB     111      PMPE     C25      CTL2    -0.180000       12.0110           0
     13726 MEMB     111      PMPE     H5R      HAL2     0.900000E-01   1.00800           0
     13727 MEMB     111      PMPE     H5S      HAL2     0.900000E-01   1.00800           0
     13728 MEMB     111      PMPE     C26      CTL2    -0.180000       12.0110           0
     13729 MEMB     111      PMPE     H6R      HAL2     0.900000E-01   1.00800           0
     13730 MEMB     111      PMPE     H6S      HAL2     0.900000E-01   1.00800           0
     13731 MEMB     111      PMPE     C27      CTL2    -0.180000       12.0110           0
     13732 MEMB     111      PMPE     H7R      HAL2     0.900000E-01   1.00800           0
     13733 MEMB     111      PMPE     H7S      HAL2     0.900000E-01   1.00800           0
     13734 MEMB     111      PMPE     C28      CTL2    -0.180000       12.0110           0
     13735 MEMB     111      PMPE     H8R      HAL2     0.900000E-01   1.00800           0
     13736 MEMB     111      PMPE     H8S      HAL2     0.900000E-01   1.00800           0
     13737 MEMB     111      PMPE     C29      CG3RC1  -0.900000E-01   12.0110           0
     13738 MEMB     111      PMPE     H9R      HGA1     0.900000E-01   1.00800           0
     13739 MEMB     111      PMPE     C217     CG3C31  -0.180000       12.0110           0
     13740 MEMB     111      PMPE     H17R     HGA2     0.900000E-01   1.00800           0
     13741 MEMB     111      PMPE     H17S     HGA2     0.900000E-01   1.00800           0
     13742 MEMB     111      PMPE     C210     CG3RC1  -0.900000E-01   12.0110           0
     13743 MEMB     111      PMPE     H10R     HGA1     0.900000E-01   1.00800           0
     13744 MEMB     111      PMPE     C211     CTL2    -0.180000       12.0110           0
     13745 MEMB     111      PMPE     H11R     HAL2     0.900000E-01   1.00800           0
     13746 MEMB     111      PMPE     H11S     HAL2     0.900000E-01   1.00800           0
     13747 MEMB     111      PMPE     C212     CTL2    -0.180000       12.0110           0
     13748 MEMB     111      PMPE     H12R     HAL2     0.900000E-01   1.00800           0
     13749 MEMB     111      PMPE     H12S     HAL2     0.900000E-01   1.00800           0
     13750 MEMB     111      PMPE     C213     CTL2    -0.180000       12.0110           0
     13751 MEMB     111      PMPE     H13R     HAL2     0.900000E-01   1.00800           0
     13752 MEMB     111      PMPE     H13S     HAL2     0.900000E-01   1.00800           0
     13753 MEMB     111      PMPE     C214     CTL2    -0.180000       12.0110           0
     13754 MEMB     111      PMPE     H14R     HAL2     0.900000E-01   1.00800           0
     13755 MEMB     111      PMPE     H14S     HAL2     0.900000E-01   1.00800           0
     13756 MEMB     111      PMPE     C215     CTL2    -0.180000       12.0110           0
     13757 MEMB     111      PMPE     H15R     HAL2     0.900000E-01   1.00800           0
     13758 MEMB     111      PMPE     H15S     HAL2     0.900000E-01   1.00800           0
     13759 MEMB     111      PMPE     C216     CTL3    -0.270000       12.0110           0
     13760 MEMB     111      PMPE     H16R     HAL3     0.900000E-01   1.00800           0
     13761 MEMB     111      PMPE     H16S     HAL3     0.900000E-01   1.00800           0
     13762 MEMB     111      PMPE     H16T     HAL3     0.900000E-01   1.00800           0
     13763 MEMB     111      PMPE     C33      CTL2    -0.180000       12.0110           0
     13764 MEMB     111      PMPE     H3X      HAL2     0.900000E-01   1.00800           0
     13765 MEMB     111      PMPE     H3Y      HAL2     0.900000E-01   1.00800           0
     13766 MEMB     111      PMPE     C34      CTL2    -0.180000       12.0110           0
     13767 MEMB     111      PMPE     H4X      HAL2     0.900000E-01   1.00800           0
     13768 MEMB     111      PMPE     H4Y      HAL2     0.900000E-01   1.00800           0
     13769 MEMB     111      PMPE     C35      CTL2    -0.180000       12.0110           0
     13770 MEMB     111      PMPE     H5X      HAL2     0.900000E-01   1.00800           0
     13771 MEMB     111      PMPE     H5Y      HAL2     0.900000E-01   1.00800           0
     13772 MEMB     111      PMPE     C36      CTL2    -0.180000       12.0110           0
     13773 MEMB     111      PMPE     H6X      HAL2     0.900000E-01   1.00800           0
     13774 MEMB     111      PMPE     H6Y      HAL2     0.900000E-01   1.00800           0
     13775 MEMB     111      PMPE     C37      CTL2    -0.180000       12.0110           0
     13776 MEMB     111      PMPE     H7X      HAL2     0.900000E-01   1.00800           0
     13777 MEMB     111      PMPE     H7Y      HAL2     0.900000E-01   1.00800           0
     13778 MEMB     111      PMPE     C38      CTL2    -0.180000       12.0110           0
     13779 MEMB     111      PMPE     H8X      HAL2     0.900000E-01   1.00800           0
     13780 MEMB     111      PMPE     H8Y      HAL2     0.900000E-01   1.00800           0
     13781 MEMB     111      PMPE     C39      CTL2    -0.180000       12.0110           0
     13782 MEMB     111      PMPE     H9X      HAL2     0.900000E-01   1.00800           0
     13783 MEMB     111      PMPE     H9Y      HAL2     0.900000E-01   1.00800           0
     13784 MEMB     111      PMPE     C310     CTL2    -0.180000       12.0110           0
     13785 MEMB     111      PMPE     H10X     HAL2     0.900000E-01   1.00800           0
     13786 MEMB     111      PMPE     H10Y     HAL2     0.900000E-01   1.00800           0
     13787 MEMB     111      PMPE     C311     CTL2    -0.180000       12.0110           0
     13788 MEMB     111      PMPE     H11X     HAL2     0.900000E-01   1.00800           0
     13789 MEMB     111      PMPE     H11Y     HAL2     0.900000E-01   1.00800           0
     13790 MEMB     111      PMPE     C312     CTL2    -0.180000       12.0110           0
     13791 MEMB     111      PMPE     H12X     HAL2     0.900000E-01   1.00800           0
     13792 MEMB     111      PMPE     H12Y     HAL2     0.900000E-01   1.00800           0
     13793 MEMB     111      PMPE     C313     CTL2    -0.180000       12.0110           0
     13794 MEMB     111      PMPE     H13X     HAL2     0.900000E-01   1.00800           0
     13795 MEMB     111      PMPE     H13Y     HAL2     0.900000E-01   1.00800           0
     13796 MEMB     111      PMPE     C314     CTL2    -0.180000       12.0110           0
     13797 MEMB     111      PMPE     H14X     HAL2     0.900000E-01   1.00800           0
     13798 MEMB     111      PMPE     H14Y     HAL2     0.900000E-01   1.00800           0
     13799 MEMB     111      PMPE     C315     CTL2    -0.180000       12.0110           0
     13800 MEMB     111      PMPE     H15X     HAL2     0.900000E-01   1.00800           0
     13801 MEMB     111      PMPE     H15Y     HAL2     0.900000E-01   1.00800           0
     13802 MEMB     111      PMPE     C316     CTL3    -0.270000       12.0110           0
     13803 MEMB     111      PMPE     H16X     HAL3     0.900000E-01   1.00800           0
     13804 MEMB     111      PMPE     H16Y     HAL3     0.900000E-01   1.00800           0
     13805 MEMB     111      PMPE     H16Z     HAL3     0.900000E-01   1.00800           0
     13806 MEMB     112      PYPG     C13      CTL2     0.500000E-01   12.0110           0
     13807 MEMB     112      PYPG     H13A     HAL2     0.900000E-01   1.00800           0
     13808 MEMB     112      PYPG     H13B     HAL2     0.900000E-01   1.00800           0
     13809 MEMB     112      PYPG     OC3      OHL     -0.660000       15.9994           0
     13810 MEMB     112      PYPG     HO3      HOL      0.430000       1.00800           0
     13811 MEMB     112      PYPG     C12      CTL1     0.140000       12.0110           0
     13812 MEMB     112      PYPG     H12A     HAL1     0.900000E-01   1.00800           0
     13813 MEMB     112      PYPG     OC2      OHL     -0.660000       15.9994           0
     13814 MEMB     112      PYPG     HO2      HOL      0.430000       1.00800           0
     13815 MEMB     112      PYPG     C11      CTL2    -0.800000E-01   12.0110           0
     13816 MEMB     112      PYPG     H11A     HAL2     0.900000E-01   1.00800           0
     13817 MEMB     112      PYPG     H11B     HAL2     0.900000E-01   1.00800           0
     13818 MEMB     112      PYPG     P        PL        1.50000       30.9740           0
     13819 MEMB     112      PYPG     O13      O2L     -0.780000       15.9994           0
     13820 MEMB     112      PYPG     O14      O2L     -0.780000       15.9994           0
     13821 MEMB     112      PYPG     O11      OSLP    -0.570000       15.9994           0
     13822 MEMB     112      PYPG     O12      OSLP    -0.570000       15.9994           0
     13823 MEMB     112      PYPG     C1       CTL2    -0.800000E-01   12.0110           0
     13824 MEMB     112      PYPG     HA       HAL2     0.900000E-01   1.00800           0
     13825 MEMB     112      PYPG     HB       HAL2     0.900000E-01   1.00800           0
     13826 MEMB     112      PYPG     C2       CTL1     0.170000       12.0110           0
     13827 MEMB     112      PYPG     HS       HAL1     0.900000E-01   1.00800           0
     13828 MEMB     112      PYPG     O21      OSL     -0.490000       15.9994           0
     13829 MEMB     112      PYPG     C21      CL       0.900000       12.0110           0
     13830 MEMB     112      PYPG     O22      OBL     -0.630000       15.9994           0
     13831 MEMB     112      PYPG     C22      CTL2    -0.220000       12.0110           0
     13832 MEMB     112      PYPG     H2R      HAL2     0.900000E-01   1.00800           0
     13833 MEMB     112      PYPG     H2S      HAL2     0.900000E-01   1.00800           0
     13834 MEMB     112      PYPG     C3       CTL2     0.800000E-01   12.0110           0
     13835 MEMB     112      PYPG     HX       HAL2     0.900000E-01   1.00800           0
     13836 MEMB     112      PYPG     HY       HAL2     0.900000E-01   1.00800           0
     13837 MEMB     112      PYPG     O31      OSL     -0.490000       15.9994           0
     13838 MEMB     112      PYPG     C31      CL       0.900000       12.0110           0
     13839 MEMB     112      PYPG     O32      OBL     -0.630000       15.9994           0
     13840 MEMB     112      PYPG     C32      CTL2    -0.220000       12.0110           0
     13841 MEMB     112      PYPG     H2X      HAL2     0.900000E-01   1.00800           0
     13842 MEMB     112      PYPG     H2Y      HAL2     0.900000E-01   1.00800           0
     13843 MEMB     112      PYPG     C23      CTL2    -0.180000       12.0110           0
     13844 MEMB     112      PYPG     H3R      HAL2     0.900000E-01   1.00800           0
     13845 MEMB     112      PYPG     H3S      HAL2     0.900000E-01   1.00800           0
     13846 MEMB     112      PYPG     C24      CTL2    -0.180000       12.0110           0
     13847 MEMB     112      PYPG     H4R      HAL2     0.900000E-01   1.00800           0
     13848 MEMB     112      PYPG     H4S      HAL2     0.900000E-01   1.00800           0
     13849 MEMB     112      PYPG     C25      CTL2    -0.180000       12.0110           0
     13850 MEMB     112      PYPG     H5R      HAL2     0.900000E-01   1.00800           0
     13851 MEMB     112      PYPG     H5S      HAL2     0.900000E-01   1.00800           0
     13852 MEMB     112      PYPG     C26      CTL2    -0.180000       12.0110           0
     13853 MEMB     112      PYPG     H6R      HAL2     0.900000E-01   1.00800           0
     13854 MEMB     112      PYPG     H6S      HAL2     0.900000E-01   1.00800           0
     13855 MEMB     112      PYPG     C27      CTL2    -0.180000       12.0110           0
     13856 MEMB     112      PYPG     H7R      HAL2     0.900000E-01   1.00800           0
     13857 MEMB     112      PYPG     H7S      HAL2     0.900000E-01   1.00800           0
     13858 MEMB     112      PYPG     C28      CTL2    -0.180000       12.0110           0
     13859 MEMB     112      PYPG     H8R      HAL2     0.900000E-01   1.00800           0
     13860 MEMB     112      PYPG     H8S      HAL2     0.900000E-01   1.00800           0
     13861 MEMB     112      PYPG     C29      CEL1    -0.150000       12.0110           0
     13862 MEMB     112      PYPG     H9R      HEL1     0.150000       1.00800           0
     13863 MEMB     112      PYPG     C210     CEL1    -0.150000       12.0110           0
     13864 MEMB     112      PYPG     H10R     HEL1     0.150000       1.00800           0
     13865 MEMB     112      PYPG     C211     CTL2    -0.180000       12.0110           0
     13866 MEMB     112      PYPG     H11R     HAL2     0.900000E-01   1.00800           0
     13867 MEMB     112      PYPG     H11S     HAL2     0.900000E-01   1.00800           0
     13868 MEMB     112      PYPG     C212     CTL2    -0.180000       12.0110           0
     13869 MEMB     112      PYPG     H12R     HAL2     0.900000E-01   1.00800           0
     13870 MEMB     112      PYPG     H12S     HAL2     0.900000E-01   1.00800           0
     13871 MEMB     112      PYPG     C213     CTL2    -0.180000       12.0110           0
     13872 MEMB     112      PYPG     H13R     HAL2     0.900000E-01   1.00800           0
     13873 MEMB     112      PYPG     H13S     HAL2     0.900000E-01   1.00800           0
     13874 MEMB     112      PYPG     C214     CTL2    -0.180000       12.0110           0
     13875 MEMB     112      PYPG     H14R     HAL2     0.900000E-01   1.00800           0
     13876 MEMB     112      PYPG     H14S     HAL2     0.900000E-01   1.00800           0
     13877 MEMB     112      PYPG     C215     CTL2    -0.180000       12.0110           0
     13878 MEMB     112      PYPG     H15R     HAL2     0.900000E-01   1.00800           0
     13879 MEMB     112      PYPG     H15S     HAL2     0.900000E-01   1.00800           0
     13880 MEMB     112      PYPG     C216     CTL3    -0.270000       12.0110           0
     13881 MEMB     112      PYPG     H16R     HAL3     0.900000E-01   1.00800           0
     13882 MEMB     112      PYPG     H16S     HAL3     0.900000E-01   1.00800           0
     13883 MEMB     112      PYPG     H16T     HAL3     0.900000E-01   1.00800           0
     13884 MEMB     112      PYPG     C33      CTL2    -0.180000       12.0110           0
     13885 MEMB     112      PYPG     H3X      HAL2     0.900000E-01   1.00800           0
     13886 MEMB     112      PYPG     H3Y      HAL2     0.900000E-01   1.00800           0
     13887 MEMB     112      PYPG     C34      CTL2    -0.180000       12.0110           0
     13888 MEMB     112      PYPG     H4X      HAL2     0.900000E-01   1.00800           0
     13889 MEMB     112      PYPG     H4Y      HAL2     0.900000E-01   1.00800           0
     13890 MEMB     112      PYPG     C35      CTL2    -0.180000       12.0110           0
     13891 MEMB     112      PYPG     H5X      HAL2     0.900000E-01   1.00800           0
     13892 MEMB     112      PYPG     H5Y      HAL2     0.900000E-01   1.00800           0
     13893 MEMB     112      PYPG     C36      CTL2    -0.180000       12.0110           0
     13894 MEMB     112      PYPG     H6X      HAL2     0.900000E-01   1.00800           0
     13895 MEMB     112      PYPG     H6Y      HAL2     0.900000E-01   1.00800           0
     13896 MEMB     112      PYPG     C37      CTL2    -0.180000       12.0110           0
     13897 MEMB     112      PYPG     H7X      HAL2     0.900000E-01   1.00800           0
     13898 MEMB     112      PYPG     H7Y      HAL2     0.900000E-01   1.00800           0
     13899 MEMB     112      PYPG     C38      CTL2    -0.180000       12.0110           0
     13900 MEMB     112      PYPG     H8X      HAL2     0.900000E-01   1.00800           0
     13901 MEMB     112      PYPG     H8Y      HAL2     0.900000E-01   1.00800           0
     13902 MEMB     112      PYPG     C39      CTL2    -0.180000       12.0110           0
     13903 MEMB     112      PYPG     H9X      HAL2     0.900000E-01   1.00800           0
     13904 MEMB     112      PYPG     H9Y      HAL2     0.900000E-01   1.00800           0
     13905 MEMB     112      PYPG     C310     CTL2    -0.180000       12.0110           0
     13906 MEMB     112      PYPG     H10X     HAL2     0.900000E-01   1.00800           0
     13907 MEMB     112      PYPG     H10Y     HAL2     0.900000E-01   1.00800           0
     13908 MEMB     112      PYPG     C311     CTL2    -0.180000       12.0110           0
     13909 MEMB     112      PYPG     H11X     HAL2     0.900000E-01   1.00800           0
     13910 MEMB     112      PYPG     H11Y     HAL2     0.900000E-01   1.00800           0
     13911 MEMB     112      PYPG     C312     CTL2    -0.180000       12.0110           0
     13912 MEMB     112      PYPG     H12X     HAL2     0.900000E-01   1.00800           0
     13913 MEMB     112      PYPG     H12Y     HAL2     0.900000E-01   1.00800           0
     13914 MEMB     112      PYPG     C313     CTL2    -0.180000       12.0110           0
     13915 MEMB     112      PYPG     H13X     HAL2     0.900000E-01   1.00800           0
     13916 MEMB     112      PYPG     H13Y     HAL2     0.900000E-01   1.00800           0
     13917 MEMB     112      PYPG     C314     CTL2    -0.180000       12.0110           0
     13918 MEMB     112      PYPG     H14X     HAL2     0.900000E-01   1.00800           0
     13919 MEMB     112      PYPG     H14Y     HAL2     0.900000E-01   1.00800           0
     13920 MEMB     112      PYPG     C315     CTL2    -0.180000       12.0110           0
     13921 MEMB     112      PYPG     H15X     HAL2     0.900000E-01   1.00800           0
     13922 MEMB     112      PYPG     H15Y     HAL2     0.900000E-01   1.00800           0
     13923 MEMB     112      PYPG     C316     CTL3    -0.270000       12.0110           0
     13924 MEMB     112      PYPG     H16X     HAL3     0.900000E-01   1.00800           0
     13925 MEMB     112      PYPG     H16Y     HAL3     0.900000E-01   1.00800           0
     13926 MEMB     112      PYPG     H16Z     HAL3     0.900000E-01   1.00800           0
     13927 MEMB     113      PMPE     N        NH3L    -0.300000       14.0070           0
     13928 MEMB     113      PMPE     HN1      HCL      0.330000       1.00800           0
     13929 MEMB     113      PMPE     HN2      HCL      0.330000       1.00800           0
     13930 MEMB     113      PMPE     HN3      HCL      0.330000       1.00800           0
     13931 MEMB     113      PMPE     C12      CTL2     0.130000       12.0110           0
     13932 MEMB     113      PMPE     H12A     HAL2     0.900000E-01   1.00800           0
     13933 MEMB     113      PMPE     H12B     HAL2     0.900000E-01   1.00800           0
     13934 MEMB     113      PMPE     C11      CTL2    -0.800000E-01   12.0110           0
     13935 MEMB     113      PMPE     H11A     HAL2     0.900000E-01   1.00800           0
     13936 MEMB     113      PMPE     H11B     HAL2     0.900000E-01   1.00800           0
     13937 MEMB     113      PMPE     P        PL        1.50000       30.9740           0
     13938 MEMB     113      PMPE     O13      O2L     -0.780000       15.9994           0
     13939 MEMB     113      PMPE     O14      O2L     -0.780000       15.9994           0
     13940 MEMB     113      PMPE     O11      OSLP    -0.570000       15.9994           0
     13941 MEMB     113      PMPE     O12      OSLP    -0.570000       15.9994           0
     13942 MEMB     113      PMPE     C1       CTL2    -0.800000E-01   12.0110           0
     13943 MEMB     113      PMPE     HA       HAL2     0.900000E-01   1.00800           0
     13944 MEMB     113      PMPE     HB       HAL2     0.900000E-01   1.00800           0
     13945 MEMB     113      PMPE     C2       CTL1     0.170000       12.0110           0
     13946 MEMB     113      PMPE     HS       HAL1     0.900000E-01   1.00800           0
     13947 MEMB     113      PMPE     O21      OSL     -0.490000       15.9994           0
     13948 MEMB     113      PMPE     C21      CL       0.900000       12.0110           0
     13949 MEMB     113      PMPE     O22      OBL     -0.630000       15.9994           0
     13950 MEMB     113      PMPE     C22      CTL2    -0.220000       12.0110           0
     13951 MEMB     113      PMPE     H2R      HAL2     0.900000E-01   1.00800           0
     13952 MEMB     113      PMPE     H2S      HAL2     0.900000E-01   1.00800           0
     13953 MEMB     113      PMPE     C3       CTL2     0.800000E-01   12.0110           0
     13954 MEMB     113      PMPE     HX       HAL2     0.900000E-01   1.00800           0
     13955 MEMB     113      PMPE     HY       HAL2     0.900000E-01   1.00800           0
     13956 MEMB     113      PMPE     O31      OSL     -0.490000       15.9994           0
     13957 MEMB     113      PMPE     C31      CL       0.900000       12.0110           0
     13958 MEMB     113      PMPE     O32      OBL     -0.630000       15.9994           0
     13959 MEMB     113      PMPE     C32      CTL2    -0.220000       12.0110           0
     13960 MEMB     113      PMPE     H2X      HAL2     0.900000E-01   1.00800           0
     13961 MEMB     113      PMPE     H2Y      HAL2     0.900000E-01   1.00800           0
     13962 MEMB     113      PMPE     C23      CTL2    -0.180000       12.0110           0
     13963 MEMB     113      PMPE     H3R      HAL2     0.900000E-01   1.00800           0
     13964 MEMB     113      PMPE     H3S      HAL2     0.900000E-01   1.00800           0
     13965 MEMB     113      PMPE     C24      CTL2    -0.180000       12.0110           0
     13966 MEMB     113      PMPE     H4R      HAL2     0.900000E-01   1.00800           0
     13967 MEMB     113      PMPE     H4S      HAL2     0.900000E-01   1.00800           0
     13968 MEMB     113      PMPE     C25      CTL2    -0.180000       12.0110           0
     13969 MEMB     113      PMPE     H5R      HAL2     0.900000E-01   1.00800           0
     13970 MEMB     113      PMPE     H5S      HAL2     0.900000E-01   1.00800           0
     13971 MEMB     113      PMPE     C26      CTL2    -0.180000       12.0110           0
     13972 MEMB     113      PMPE     H6R      HAL2     0.900000E-01   1.00800           0
     13973 MEMB     113      PMPE     H6S      HAL2     0.900000E-01   1.00800           0
     13974 MEMB     113      PMPE     C27      CTL2    -0.180000       12.0110           0
     13975 MEMB     113      PMPE     H7R      HAL2     0.900000E-01   1.00800           0
     13976 MEMB     113      PMPE     H7S      HAL2     0.900000E-01   1.00800           0
     13977 MEMB     113      PMPE     C28      CTL2    -0.180000       12.0110           0
     13978 MEMB     113      PMPE     H8R      HAL2     0.900000E-01   1.00800           0
     13979 MEMB     113      PMPE     H8S      HAL2     0.900000E-01   1.00800           0
     13980 MEMB     113      PMPE     C29      CG3RC1  -0.900000E-01   12.0110           0
     13981 MEMB     113      PMPE     H9R      HGA1     0.900000E-01   1.00800           0
     13982 MEMB     113      PMPE     C217     CG3C31  -0.180000       12.0110           0
     13983 MEMB     113      PMPE     H17R     HGA2     0.900000E-01   1.00800           0
     13984 MEMB     113      PMPE     H17S     HGA2     0.900000E-01   1.00800           0
     13985 MEMB     113      PMPE     C210     CG3RC1  -0.900000E-01   12.0110           0
     13986 MEMB     113      PMPE     H10R     HGA1     0.900000E-01   1.00800           0
     13987 MEMB     113      PMPE     C211     CTL2    -0.180000       12.0110           0
     13988 MEMB     113      PMPE     H11R     HAL2     0.900000E-01   1.00800           0
     13989 MEMB     113      PMPE     H11S     HAL2     0.900000E-01   1.00800           0
     13990 MEMB     113      PMPE     C212     CTL2    -0.180000       12.0110           0
     13991 MEMB     113      PMPE     H12R     HAL2     0.900000E-01   1.00800           0
     13992 MEMB     113      PMPE     H12S     HAL2     0.900000E-01   1.00800           0
     13993 MEMB     113      PMPE     C213     CTL2    -0.180000       12.0110           0
     13994 MEMB     113      PMPE     H13R     HAL2     0.900000E-01   1.00800           0
     13995 MEMB     113      PMPE     H13S     HAL2     0.900000E-01   1.00800           0
     13996 MEMB     113      PMPE     C214     CTL2    -0.180000       12.0110           0
     13997 MEMB     113      PMPE     H14R     HAL2     0.900000E-01   1.00800           0
     13998 MEMB     113      PMPE     H14S     HAL2     0.900000E-01   1.00800           0
     13999 MEMB     113      PMPE     C215     CTL2    -0.180000       12.0110           0
     14000 MEMB     113      PMPE     H15R     HAL2     0.900000E-01   1.00800           0
     14001 MEMB     113      PMPE     H15S     HAL2     0.900000E-01   1.00800           0
     14002 MEMB     113      PMPE     C216     CTL3    -0.270000       12.0110           0
     14003 MEMB     113      PMPE     H16R     HAL3     0.900000E-01   1.00800           0
     14004 MEMB     113      PMPE     H16S     HAL3     0.900000E-01   1.00800           0
     14005 MEMB     113      PMPE     H16T     HAL3     0.900000E-01   1.00800           0
     14006 MEMB     113      PMPE     C33      CTL2    -0.180000       12.0110           0
     14007 MEMB     113      PMPE     H3X      HAL2     0.900000E-01   1.00800           0
     14008 MEMB     113      PMPE     H3Y      HAL2     0.900000E-01   1.00800           0
     14009 MEMB     113      PMPE     C34      CTL2    -0.180000       12.0110           0
     14010 MEMB     113      PMPE     H4X      HAL2     0.900000E-01   1.00800           0
     14011 MEMB     113      PMPE     H4Y      HAL2     0.900000E-01   1.00800           0
     14012 MEMB     113      PMPE     C35      CTL2    -0.180000       12.0110           0
     14013 MEMB     113      PMPE     H5X      HAL2     0.900000E-01   1.00800           0
     14014 MEMB     113      PMPE     H5Y      HAL2     0.900000E-01   1.00800           0
     14015 MEMB     113      PMPE     C36      CTL2    -0.180000       12.0110           0
     14016 MEMB     113      PMPE     H6X      HAL2     0.900000E-01   1.00800           0
     14017 MEMB     113      PMPE     H6Y      HAL2     0.900000E-01   1.00800           0
     14018 MEMB     113      PMPE     C37      CTL2    -0.180000       12.0110           0
     14019 MEMB     113      PMPE     H7X      HAL2     0.900000E-01   1.00800           0
     14020 MEMB     113      PMPE     H7Y      HAL2     0.900000E-01   1.00800           0
     14021 MEMB     113      PMPE     C38      CTL2    -0.180000       12.0110           0
     14022 MEMB     113      PMPE     H8X      HAL2     0.900000E-01   1.00800           0
     14023 MEMB     113      PMPE     H8Y      HAL2     0.900000E-01   1.00800           0
     14024 MEMB     113      PMPE     C39      CTL2    -0.180000       12.0110           0
     14025 MEMB     113      PMPE     H9X      HAL2     0.900000E-01   1.00800           0
     14026 MEMB     113      PMPE     H9Y      HAL2     0.900000E-01   1.00800           0
     14027 MEMB     113      PMPE     C310     CTL2    -0.180000       12.0110           0
     14028 MEMB     113      PMPE     H10X     HAL2     0.900000E-01   1.00800           0
     14029 MEMB     113      PMPE     H10Y     HAL2     0.900000E-01   1.00800           0
     14030 MEMB     113      PMPE     C311     CTL2    -0.180000       12.0110           0
     14031 MEMB     113      PMPE     H11X     HAL2     0.900000E-01   1.00800           0
     14032 MEMB     113      PMPE     H11Y     HAL2     0.900000E-01   1.00800           0
     14033 MEMB     113      PMPE     C312     CTL2    -0.180000       12.0110           0
     14034 MEMB     113      PMPE     H12X     HAL2     0.900000E-01   1.00800           0
     14035 MEMB     113      PMPE     H12Y     HAL2     0.900000E-01   1.00800           0
     14036 MEMB     113      PMPE     C313     CTL2    -0.180000       12.0110           0
     14037 MEMB     113      PMPE     H13X     HAL2     0.900000E-01   1.00800           0
     14038 MEMB     113      PMPE     H13Y     HAL2     0.900000E-01   1.00800           0
     14039 MEMB     113      PMPE     C314     CTL2    -0.180000       12.0110           0
     14040 MEMB     113      PMPE     H14X     HAL2     0.900000E-01   1.00800           0
     14041 MEMB     113      PMPE     H14Y     HAL2     0.900000E-01   1.00800           0
     14042 MEMB     113      PMPE     C315     CTL2    -0.180000       12.0110           0
     14043 MEMB     113      PMPE     H15X     HAL2     0.900000E-01   1.00800           0
     14044 MEMB     113      PMPE     H15Y     HAL2     0.900000E-01   1.00800           0
     14045 MEMB     113      PMPE     C316     CTL3    -0.270000       12.0110           0
     14046 MEMB     113      PMPE     H16X     HAL3     0.900000E-01   1.00800           0
     14047 MEMB     113      PMPE     H16Y     HAL3     0.900000E-01   1.00800           0
     14048 MEMB     113      PMPE     H16Z     HAL3     0.900000E-01   1.00800           0
     14049 MEMB     114      PMPE     N        NH3L    -0.300000       14.0070           0
     14050 MEMB     114      PMPE     HN1      HCL      0.330000       1.00800           0
     14051 MEMB     114      PMPE     HN2      HCL      0.330000       1.00800           0
     14052 MEMB     114      PMPE     HN3      HCL      0.330000       1.00800           0
     14053 MEMB     114      PMPE     C12      CTL2     0.130000       12.0110           0
     14054 MEMB     114      PMPE     H12A     HAL2     0.900000E-01   1.00800           0
     14055 MEMB     114      PMPE     H12B     HAL2     0.900000E-01   1.00800           0
     14056 MEMB     114      PMPE     C11      CTL2    -0.800000E-01   12.0110           0
     14057 MEMB     114      PMPE     H11A     HAL2     0.900000E-01   1.00800           0
     14058 MEMB     114      PMPE     H11B     HAL2     0.900000E-01   1.00800           0
     14059 MEMB     114      PMPE     P        PL        1.50000       30.9740           0
     14060 MEMB     114      PMPE     O13      O2L     -0.780000       15.9994           0
     14061 MEMB     114      PMPE     O14      O2L     -0.780000       15.9994           0
     14062 MEMB     114      PMPE     O11      OSLP    -0.570000       15.9994           0
     14063 MEMB     114      PMPE     O12      OSLP    -0.570000       15.9994           0
     14064 MEMB     114      PMPE     C1       CTL2    -0.800000E-01   12.0110           0
     14065 MEMB     114      PMPE     HA       HAL2     0.900000E-01   1.00800           0
     14066 MEMB     114      PMPE     HB       HAL2     0.900000E-01   1.00800           0
     14067 MEMB     114      PMPE     C2       CTL1     0.170000       12.0110           0
     14068 MEMB     114      PMPE     HS       HAL1     0.900000E-01   1.00800           0
     14069 MEMB     114      PMPE     O21      OSL     -0.490000       15.9994           0
     14070 MEMB     114      PMPE     C21      CL       0.900000       12.0110           0
     14071 MEMB     114      PMPE     O22      OBL     -0.630000       15.9994           0
     14072 MEMB     114      PMPE     C22      CTL2    -0.220000       12.0110           0
     14073 MEMB     114      PMPE     H2R      HAL2     0.900000E-01   1.00800           0
     14074 MEMB     114      PMPE     H2S      HAL2     0.900000E-01   1.00800           0
     14075 MEMB     114      PMPE     C3       CTL2     0.800000E-01   12.0110           0
     14076 MEMB     114      PMPE     HX       HAL2     0.900000E-01   1.00800           0
     14077 MEMB     114      PMPE     HY       HAL2     0.900000E-01   1.00800           0
     14078 MEMB     114      PMPE     O31      OSL     -0.490000       15.9994           0
     14079 MEMB     114      PMPE     C31      CL       0.900000       12.0110           0
     14080 MEMB     114      PMPE     O32      OBL     -0.630000       15.9994           0
     14081 MEMB     114      PMPE     C32      CTL2    -0.220000       12.0110           0
     14082 MEMB     114      PMPE     H2X      HAL2     0.900000E-01   1.00800           0
     14083 MEMB     114      PMPE     H2Y      HAL2     0.900000E-01   1.00800           0
     14084 MEMB     114      PMPE     C23      CTL2    -0.180000       12.0110           0
     14085 MEMB     114      PMPE     H3R      HAL2     0.900000E-01   1.00800           0
     14086 MEMB     114      PMPE     H3S      HAL2     0.900000E-01   1.00800           0
     14087 MEMB     114      PMPE     C24      CTL2    -0.180000       12.0110           0
     14088 MEMB     114      PMPE     H4R      HAL2     0.900000E-01   1.00800           0
     14089 MEMB     114      PMPE     H4S      HAL2     0.900000E-01   1.00800           0
     14090 MEMB     114      PMPE     C25      CTL2    -0.180000       12.0110           0
     14091 MEMB     114      PMPE     H5R      HAL2     0.900000E-01   1.00800           0
     14092 MEMB     114      PMPE     H5S      HAL2     0.900000E-01   1.00800           0
     14093 MEMB     114      PMPE     C26      CTL2    -0.180000       12.0110           0
     14094 MEMB     114      PMPE     H6R      HAL2     0.900000E-01   1.00800           0
     14095 MEMB     114      PMPE     H6S      HAL2     0.900000E-01   1.00800           0
     14096 MEMB     114      PMPE     C27      CTL2    -0.180000       12.0110           0
     14097 MEMB     114      PMPE     H7R      HAL2     0.900000E-01   1.00800           0
     14098 MEMB     114      PMPE     H7S      HAL2     0.900000E-01   1.00800           0
     14099 MEMB     114      PMPE     C28      CTL2    -0.180000       12.0110           0
     14100 MEMB     114      PMPE     H8R      HAL2     0.900000E-01   1.00800           0
     14101 MEMB     114      PMPE     H8S      HAL2     0.900000E-01   1.00800           0
     14102 MEMB     114      PMPE     C29      CG3RC1  -0.900000E-01   12.0110           0
     14103 MEMB     114      PMPE     H9R      HGA1     0.900000E-01   1.00800           0
     14104 MEMB     114      PMPE     C217     CG3C31  -0.180000       12.0110           0
     14105 MEMB     114      PMPE     H17R     HGA2     0.900000E-01   1.00800           0
     14106 MEMB     114      PMPE     H17S     HGA2     0.900000E-01   1.00800           0
     14107 MEMB     114      PMPE     C210     CG3RC1  -0.900000E-01   12.0110           0
     14108 MEMB     114      PMPE     H10R     HGA1     0.900000E-01   1.00800           0
     14109 MEMB     114      PMPE     C211     CTL2    -0.180000       12.0110           0
     14110 MEMB     114      PMPE     H11R     HAL2     0.900000E-01   1.00800           0
     14111 MEMB     114      PMPE     H11S     HAL2     0.900000E-01   1.00800           0
     14112 MEMB     114      PMPE     C212     CTL2    -0.180000       12.0110           0
     14113 MEMB     114      PMPE     H12R     HAL2     0.900000E-01   1.00800           0
     14114 MEMB     114      PMPE     H12S     HAL2     0.900000E-01   1.00800           0
     14115 MEMB     114      PMPE     C213     CTL2    -0.180000       12.0110           0
     14116 MEMB     114      PMPE     H13R     HAL2     0.900000E-01   1.00800           0
     14117 MEMB     114      PMPE     H13S     HAL2     0.900000E-01   1.00800           0
     14118 MEMB     114      PMPE     C214     CTL2    -0.180000       12.0110           0
     14119 MEMB     114      PMPE     H14R     HAL2     0.900000E-01   1.00800           0
     14120 MEMB     114      PMPE     H14S     HAL2     0.900000E-01   1.00800           0
     14121 MEMB     114      PMPE     C215     CTL2    -0.180000       12.0110           0
     14122 MEMB     114      PMPE     H15R     HAL2     0.900000E-01   1.00800           0
     14123 MEMB     114      PMPE     H15S     HAL2     0.900000E-01   1.00800           0
     14124 MEMB     114      PMPE     C216     CTL3    -0.270000       12.0110           0
     14125 MEMB     114      PMPE     H16R     HAL3     0.900000E-01   1.00800           0
     14126 MEMB     114      PMPE     H16S     HAL3     0.900000E-01   1.00800           0
     14127 MEMB     114      PMPE     H16T     HAL3     0.900000E-01   1.00800           0
     14128 MEMB     114      PMPE     C33      CTL2    -0.180000       12.0110           0
     14129 MEMB     114      PMPE     H3X      HAL2     0.900000E-01   1.00800           0
     14130 MEMB     114      PMPE     H3Y      HAL2     0.900000E-01   1.00800           0
     14131 MEMB     114      PMPE     C34      CTL2    -0.180000       12.0110           0
     14132 MEMB     114      PMPE     H4X      HAL2     0.900000E-01   1.00800           0
     14133 MEMB     114      PMPE     H4Y      HAL2     0.900000E-01   1.00800           0
     14134 MEMB     114      PMPE     C35      CTL2    -0.180000       12.0110           0
     14135 MEMB     114      PMPE     H5X      HAL2     0.900000E-01   1.00800           0
     14136 MEMB     114      PMPE     H5Y      HAL2     0.900000E-01   1.00800           0
     14137 MEMB     114      PMPE     C36      CTL2    -0.180000       12.0110           0
     14138 MEMB     114      PMPE     H6X      HAL2     0.900000E-01   1.00800           0
     14139 MEMB     114      PMPE     H6Y      HAL2     0.900000E-01   1.00800           0
     14140 MEMB     114      PMPE     C37      CTL2    -0.180000       12.0110           0
     14141 MEMB     114      PMPE     H7X      HAL2     0.900000E-01   1.00800           0
     14142 MEMB     114      PMPE     H7Y      HAL2     0.900000E-01   1.00800           0
     14143 MEMB     114      PMPE     C38      CTL2    -0.180000       12.0110           0
     14144 MEMB     114      PMPE     H8X      HAL2     0.900000E-01   1.00800           0
     14145 MEMB     114      PMPE     H8Y      HAL2     0.900000E-01   1.00800           0
     14146 MEMB     114      PMPE     C39      CTL2    -0.180000       12.0110           0
     14147 MEMB     114      PMPE     H9X      HAL2     0.900000E-01   1.00800           0
     14148 MEMB     114      PMPE     H9Y      HAL2     0.900000E-01   1.00800           0
     14149 MEMB     114      PMPE     C310     CTL2    -0.180000       12.0110           0
     14150 MEMB     114      PMPE     H10X     HAL2     0.900000E-01   1.00800           0
     14151 MEMB     114      PMPE     H10Y     HAL2     0.900000E-01   1.00800           0
     14152 MEMB     114      PMPE     C311     CTL2    -0.180000       12.0110           0
     14153 MEMB     114      PMPE     H11X     HAL2     0.900000E-01   1.00800           0
     14154 MEMB     114      PMPE     H11Y     HAL2     0.900000E-01   1.00800           0
     14155 MEMB     114      PMPE     C312     CTL2    -0.180000       12.0110           0
     14156 MEMB     114      PMPE     H12X     HAL2     0.900000E-01   1.00800           0
     14157 MEMB     114      PMPE     H12Y     HAL2     0.900000E-01   1.00800           0
     14158 MEMB     114      PMPE     C313     CTL2    -0.180000       12.0110           0
     14159 MEMB     114      PMPE     H13X     HAL2     0.900000E-01   1.00800           0
     14160 MEMB     114      PMPE     H13Y     HAL2     0.900000E-01   1.00800           0
     14161 MEMB     114      PMPE     C314     CTL2    -0.180000       12.0110           0
     14162 MEMB     114      PMPE     H14X     HAL2     0.900000E-01   1.00800           0
     14163 MEMB     114      PMPE     H14Y     HAL2     0.900000E-01   1.00800           0
     14164 MEMB     114      PMPE     C315     CTL2    -0.180000       12.0110           0
     14165 MEMB     114      PMPE     H15X     HAL2     0.900000E-01   1.00800           0
     14166 MEMB     114      PMPE     H15Y     HAL2     0.900000E-01   1.00800           0
     14167 MEMB     114      PMPE     C316     CTL3    -0.270000       12.0110           0
     14168 MEMB     114      PMPE     H16X     HAL3     0.900000E-01   1.00800           0
     14169 MEMB     114      PMPE     H16Y     HAL3     0.900000E-01   1.00800           0
     14170 MEMB     114      PMPE     H16Z     HAL3     0.900000E-01   1.00800           0
     14171 MEMB     115      PMPE     N        NH3L    -0.300000       14.0070           0
     14172 MEMB     115      PMPE     HN1      HCL      0.330000       1.00800           0
     14173 MEMB     115      PMPE     HN2      HCL      0.330000       1.00800           0
     14174 MEMB     115      PMPE     HN3      HCL      0.330000       1.00800           0
     14175 MEMB     115      PMPE     C12      CTL2     0.130000       12.0110           0
     14176 MEMB     115      PMPE     H12A     HAL2     0.900000E-01   1.00800           0
     14177 MEMB     115      PMPE     H12B     HAL2     0.900000E-01   1.00800           0
     14178 MEMB     115      PMPE     C11      CTL2    -0.800000E-01   12.0110           0
     14179 MEMB     115      PMPE     H11A     HAL2     0.900000E-01   1.00800           0
     14180 MEMB     115      PMPE     H11B     HAL2     0.900000E-01   1.00800           0
     14181 MEMB     115      PMPE     P        PL        1.50000       30.9740           0
     14182 MEMB     115      PMPE     O13      O2L     -0.780000       15.9994           0
     14183 MEMB     115      PMPE     O14      O2L     -0.780000       15.9994           0
     14184 MEMB     115      PMPE     O11      OSLP    -0.570000       15.9994           0
     14185 MEMB     115      PMPE     O12      OSLP    -0.570000       15.9994           0
     14186 MEMB     115      PMPE     C1       CTL2    -0.800000E-01   12.0110           0
     14187 MEMB     115      PMPE     HA       HAL2     0.900000E-01   1.00800           0
     14188 MEMB     115      PMPE     HB       HAL2     0.900000E-01   1.00800           0
     14189 MEMB     115      PMPE     C2       CTL1     0.170000       12.0110           0
     14190 MEMB     115      PMPE     HS       HAL1     0.900000E-01   1.00800           0
     14191 MEMB     115      PMPE     O21      OSL     -0.490000       15.9994           0
     14192 MEMB     115      PMPE     C21      CL       0.900000       12.0110           0
     14193 MEMB     115      PMPE     O22      OBL     -0.630000       15.9994           0
     14194 MEMB     115      PMPE     C22      CTL2    -0.220000       12.0110           0
     14195 MEMB     115      PMPE     H2R      HAL2     0.900000E-01   1.00800           0
     14196 MEMB     115      PMPE     H2S      HAL2     0.900000E-01   1.00800           0
     14197 MEMB     115      PMPE     C3       CTL2     0.800000E-01   12.0110           0
     14198 MEMB     115      PMPE     HX       HAL2     0.900000E-01   1.00800           0
     14199 MEMB     115      PMPE     HY       HAL2     0.900000E-01   1.00800           0
     14200 MEMB     115      PMPE     O31      OSL     -0.490000       15.9994           0
     14201 MEMB     115      PMPE     C31      CL       0.900000       12.0110           0
     14202 MEMB     115      PMPE     O32      OBL     -0.630000       15.9994           0
     14203 MEMB     115      PMPE     C32      CTL2    -0.220000       12.0110           0
     14204 MEMB     115      PMPE     H2X      HAL2     0.900000E-01   1.00800           0
     14205 MEMB     115      PMPE     H2Y      HAL2     0.900000E-01   1.00800           0
     14206 MEMB     115      PMPE     C23      CTL2    -0.180000       12.0110           0
     14207 MEMB     115      PMPE     H3R      HAL2     0.900000E-01   1.00800           0
     14208 MEMB     115      PMPE     H3S      HAL2     0.900000E-01   1.00800           0
     14209 MEMB     115      PMPE     C24      CTL2    -0.180000       12.0110           0
     14210 MEMB     115      PMPE     H4R      HAL2     0.900000E-01   1.00800           0
     14211 MEMB     115      PMPE     H4S      HAL2     0.900000E-01   1.00800           0
     14212 MEMB     115      PMPE     C25      CTL2    -0.180000       12.0110           0
     14213 MEMB     115      PMPE     H5R      HAL2     0.900000E-01   1.00800           0
     14214 MEMB     115      PMPE     H5S      HAL2     0.900000E-01   1.00800           0
     14215 MEMB     115      PMPE     C26      CTL2    -0.180000       12.0110           0
     14216 MEMB     115      PMPE     H6R      HAL2     0.900000E-01   1.00800           0
     14217 MEMB     115      PMPE     H6S      HAL2     0.900000E-01   1.00800           0
     14218 MEMB     115      PMPE     C27      CTL2    -0.180000       12.0110           0
     14219 MEMB     115      PMPE     H7R      HAL2     0.900000E-01   1.00800           0
     14220 MEMB     115      PMPE     H7S      HAL2     0.900000E-01   1.00800           0
     14221 MEMB     115      PMPE     C28      CTL2    -0.180000       12.0110           0
     14222 MEMB     115      PMPE     H8R      HAL2     0.900000E-01   1.00800           0
     14223 MEMB     115      PMPE     H8S      HAL2     0.900000E-01   1.00800           0
     14224 MEMB     115      PMPE     C29      CG3RC1  -0.900000E-01   12.0110           0
     14225 MEMB     115      PMPE     H9R      HGA1     0.900000E-01   1.00800           0
     14226 MEMB     115      PMPE     C217     CG3C31  -0.180000       12.0110           0
     14227 MEMB     115      PMPE     H17R     HGA2     0.900000E-01   1.00800           0
     14228 MEMB     115      PMPE     H17S     HGA2     0.900000E-01   1.00800           0
     14229 MEMB     115      PMPE     C210     CG3RC1  -0.900000E-01   12.0110           0
     14230 MEMB     115      PMPE     H10R     HGA1     0.900000E-01   1.00800           0
     14231 MEMB     115      PMPE     C211     CTL2    -0.180000       12.0110           0
     14232 MEMB     115      PMPE     H11R     HAL2     0.900000E-01   1.00800           0
     14233 MEMB     115      PMPE     H11S     HAL2     0.900000E-01   1.00800           0
     14234 MEMB     115      PMPE     C212     CTL2    -0.180000       12.0110           0
     14235 MEMB     115      PMPE     H12R     HAL2     0.900000E-01   1.00800           0
     14236 MEMB     115      PMPE     H12S     HAL2     0.900000E-01   1.00800           0
     14237 MEMB     115      PMPE     C213     CTL2    -0.180000       12.0110           0
     14238 MEMB     115      PMPE     H13R     HAL2     0.900000E-01   1.00800           0
     14239 MEMB     115      PMPE     H13S     HAL2     0.900000E-01   1.00800           0
     14240 MEMB     115      PMPE     C214     CTL2    -0.180000       12.0110           0
     14241 MEMB     115      PMPE     H14R     HAL2     0.900000E-01   1.00800           0
     14242 MEMB     115      PMPE     H14S     HAL2     0.900000E-01   1.00800           0
     14243 MEMB     115      PMPE     C215     CTL2    -0.180000       12.0110           0
     14244 MEMB     115      PMPE     H15R     HAL2     0.900000E-01   1.00800           0
     14245 MEMB     115      PMPE     H15S     HAL2     0.900000E-01   1.00800           0
     14246 MEMB     115      PMPE     C216     CTL3    -0.270000       12.0110           0
     14247 MEMB     115      PMPE     H16R     HAL3     0.900000E-01   1.00800           0
     14248 MEMB     115      PMPE     H16S     HAL3     0.900000E-01   1.00800           0
     14249 MEMB     115      PMPE     H16T     HAL3     0.900000E-01   1.00800           0
     14250 MEMB     115      PMPE     C33      CTL2    -0.180000       12.0110           0
     14251 MEMB     115      PMPE     H3X      HAL2     0.900000E-01   1.00800           0
     14252 MEMB     115      PMPE     H3Y      HAL2     0.900000E-01   1.00800           0
     14253 MEMB     115      PMPE     C34      CTL2    -0.180000       12.0110           0
     14254 MEMB     115      PMPE     H4X      HAL2     0.900000E-01   1.00800           0
     14255 MEMB     115      PMPE     H4Y      HAL2     0.900000E-01   1.00800           0
     14256 MEMB     115      PMPE     C35      CTL2    -0.180000       12.0110           0
     14257 MEMB     115      PMPE     H5X      HAL2     0.900000E-01   1.00800           0
     14258 MEMB     115      PMPE     H5Y      HAL2     0.900000E-01   1.00800           0
     14259 MEMB     115      PMPE     C36      CTL2    -0.180000       12.0110           0
     14260 MEMB     115      PMPE     H6X      HAL2     0.900000E-01   1.00800           0
     14261 MEMB     115      PMPE     H6Y      HAL2     0.900000E-01   1.00800           0
     14262 MEMB     115      PMPE     C37      CTL2    -0.180000       12.0110           0
     14263 MEMB     115      PMPE     H7X      HAL2     0.900000E-01   1.00800           0
     14264 MEMB     115      PMPE     H7Y      HAL2     0.900000E-01   1.00800           0
     14265 MEMB     115      PMPE     C38      CTL2    -0.180000       12.0110           0
     14266 MEMB     115      PMPE     H8X      HAL2     0.900000E-01   1.00800           0
     14267 MEMB     115      PMPE     H8Y      HAL2     0.900000E-01   1.00800           0
     14268 MEMB     115      PMPE     C39      CTL2    -0.180000       12.0110           0
     14269 MEMB     115      PMPE     H9X      HAL2     0.900000E-01   1.00800           0
     14270 MEMB     115      PMPE     H9Y      HAL2     0.900000E-01   1.00800           0
     14271 MEMB     115      PMPE     C310     CTL2    -0.180000       12.0110           0
     14272 MEMB     115      PMPE     H10X     HAL2     0.900000E-01   1.00800           0
     14273 MEMB     115      PMPE     H10Y     HAL2     0.900000E-01   1.00800           0
     14274 MEMB     115      PMPE     C311     CTL2    -0.180000       12.0110           0
     14275 MEMB     115      PMPE     H11X     HAL2     0.900000E-01   1.00800           0
     14276 MEMB     115      PMPE     H11Y     HAL2     0.900000E-01   1.00800           0
     14277 MEMB     115      PMPE     C312     CTL2    -0.180000       12.0110           0
     14278 MEMB     115      PMPE     H12X     HAL2     0.900000E-01   1.00800           0
     14279 MEMB     115      PMPE     H12Y     HAL2     0.900000E-01   1.00800           0
     14280 MEMB     115      PMPE     C313     CTL2    -0.180000       12.0110           0
     14281 MEMB     115      PMPE     H13X     HAL2     0.900000E-01   1.00800           0
     14282 MEMB     115      PMPE     H13Y     HAL2     0.900000E-01   1.00800           0
     14283 MEMB     115      PMPE     C314     CTL2    -0.180000       12.0110           0
     14284 MEMB     115      PMPE     H14X     HAL2     0.900000E-01   1.00800           0
     14285 MEMB     115      PMPE     H14Y     HAL2     0.900000E-01   1.00800           0
     14286 MEMB     115      PMPE     C315     CTL2    -0.180000       12.0110           0
     14287 MEMB     115      PMPE     H15X     HAL2     0.900000E-01   1.00800           0
     14288 MEMB     115      PMPE     H15Y     HAL2     0.900000E-01   1.00800           0
     14289 MEMB     115      PMPE     C316     CTL3    -0.270000       12.0110           0
     14290 MEMB     115      PMPE     H16X     HAL3     0.900000E-01   1.00800           0
     14291 MEMB     115      PMPE     H16Y     HAL3     0.900000E-01   1.00800           0
     14292 MEMB     115      PMPE     H16Z     HAL3     0.900000E-01   1.00800           0
     14293 MEMB     116      PVCL2    C3       CTL2    -0.800000E-01   12.0110           0
     14294 MEMB     116      PVCL2    HG31     HAL2     0.900000E-01   1.00800           0
     14295 MEMB     116      PVCL2    HG32     HAL2     0.900000E-01   1.00800           0
     14296 MEMB     116      PVCL2    P3       PL        1.50000       30.9740           0
     14297 MEMB     116      PVCL2    OP33     O2L     -0.780000       15.9994           0
     14298 MEMB     116      PVCL2    OP34     O2L     -0.780000       15.9994           0
     14299 MEMB     116      PVCL2    OP31     OSLP    -0.570000       15.9994           0
     14300 MEMB     116      PVCL2    OP32     OSLP    -0.570000       15.9994           0
     14301 MEMB     116      PVCL2    C31      CTL2    -0.800000E-01   12.0110           0
     14302 MEMB     116      PVCL2    H31J     HAL2     0.900000E-01   1.00800           0
     14303 MEMB     116      PVCL2    H31K     HAL2     0.900000E-01   1.00800           0
     14304 MEMB     116      PVCL2    C2       CTL1     0.140000       12.0110           0
     14305 MEMB     116      PVCL2    HG22     HAL1     0.900000E-01   1.00800           0
     14306 MEMB     116      PVCL2    OG12     OHL     -0.650000       15.9994           0
     14307 MEMB     116      PVCL2    HO12     HOL      0.420000       1.00800           0
     14308 MEMB     116      PVCL2    C1       CTL2    -0.800000E-01   12.0110           0
     14309 MEMB     116      PVCL2    HG11     HAL2     0.900000E-01   1.00800           0
     14310 MEMB     116      PVCL2    HG12     HAL2     0.900000E-01   1.00800           0
     14311 MEMB     116      PVCL2    P1       PL        1.50000       30.9740           0
     14312 MEMB     116      PVCL2    OP13     O2L     -0.780000       15.9994           0
     14313 MEMB     116      PVCL2    OP14     O2L     -0.780000       15.9994           0
     14314 MEMB     116      PVCL2    OP11     OSLP    -0.570000       15.9994           0
     14315 MEMB     116      PVCL2    OP12     OSLP    -0.570000       15.9994           0
     14316 MEMB     116      PVCL2    C11      CTL2    -0.800000E-01   12.0110           0
     14317 MEMB     116      PVCL2    H11J     HAL2     0.900000E-01   1.00800           0
     14318 MEMB     116      PVCL2    H11K     HAL2     0.900000E-01   1.00800           0
     14319 MEMB     116      PVCL2    C12      CTL1     0.170000       12.0110           0
     14320 MEMB     116      PVCL2    H12J     HAL1     0.900000E-01   1.00800           0
     14321 MEMB     116      PVCL2    O12      OSL     -0.490000       15.9994           0
     14322 MEMB     116      PVCL2    CA1      CL       0.900000       12.0110           0
     14323 MEMB     116      PVCL2    OA1      OBL     -0.630000       15.9994           0
     14324 MEMB     116      PVCL2    CA2      CTL2    -0.220000       12.0110           0
     14325 MEMB     116      PVCL2    H2A      HAL2     0.900000E-01   1.00800           0
     14326 MEMB     116      PVCL2    H2B      HAL2     0.900000E-01   1.00800           0
     14327 MEMB     116      PVCL2    C13      CTL2     0.800000E-01   12.0110           0
     14328 MEMB     116      PVCL2    H13J     HAL2     0.900000E-01   1.00800           0
     14329 MEMB     116      PVCL2    H13K     HAL2     0.900000E-01   1.00800           0
     14330 MEMB     116      PVCL2    O13      OSL     -0.490000       15.9994           0
     14331 MEMB     116      PVCL2    CB1      CL       0.900000       12.0110           0
     14332 MEMB     116      PVCL2    OB1      OBL     -0.630000       15.9994           0
     14333 MEMB     116      PVCL2    CB2      CTL2    -0.220000       12.0110           0
     14334 MEMB     116      PVCL2    H2D      HAL2     0.900000E-01   1.00800           0
     14335 MEMB     116      PVCL2    H2E      HAL2     0.900000E-01   1.00800           0
     14336 MEMB     116      PVCL2    C32      CTL1     0.170000       12.0110           0
     14337 MEMB     116      PVCL2    H32J     HAL1     0.900000E-01   1.00800           0
     14338 MEMB     116      PVCL2    O32      OSL     -0.490000       15.9994           0
     14339 MEMB     116      PVCL2    CC1      CL       0.900000       12.0110           0
     14340 MEMB     116      PVCL2    OC1      OBL     -0.630000       15.9994           0
     14341 MEMB     116      PVCL2    CC2      CTL2    -0.220000       12.0110           0
     14342 MEMB     116      PVCL2    H2R      HAL2     0.900000E-01   1.00800           0
     14343 MEMB     116      PVCL2    H2S      HAL2     0.900000E-01   1.00800           0
     14344 MEMB     116      PVCL2    C33      CTL2     0.800000E-01   12.0110           0
     14345 MEMB     116      PVCL2    H33J     HAL2     0.900000E-01   1.00800           0
     14346 MEMB     116      PVCL2    H33K     HAL2     0.900000E-01   1.00800           0
     14347 MEMB     116      PVCL2    O33      OSL     -0.490000       15.9994           0
     14348 MEMB     116      PVCL2    CD1      CL       0.900000       12.0110           0
     14349 MEMB     116      PVCL2    OD1      OBL     -0.630000       15.9994           0
     14350 MEMB     116      PVCL2    CD2      CTL2    -0.220000       12.0110           0
     14351 MEMB     116      PVCL2    H2X      HAL2     0.900000E-01   1.00800           0
     14352 MEMB     116      PVCL2    H2Y      HAL2     0.900000E-01   1.00800           0
     14353 MEMB     116      PVCL2    CA3      CTL2    -0.180000       12.0110           0
     14354 MEMB     116      PVCL2    H3A      HAL2     0.900000E-01   1.00800           0
     14355 MEMB     116      PVCL2    H3B      HAL2     0.900000E-01   1.00800           0
     14356 MEMB     116      PVCL2    CA4      CTL2    -0.180000       12.0110           0
     14357 MEMB     116      PVCL2    H4A      HAL2     0.900000E-01   1.00800           0
     14358 MEMB     116      PVCL2    H4B      HAL2     0.900000E-01   1.00800           0
     14359 MEMB     116      PVCL2    CA5      CTL2    -0.180000       12.0110           0
     14360 MEMB     116      PVCL2    H5A      HAL2     0.900000E-01   1.00800           0
     14361 MEMB     116      PVCL2    H5B      HAL2     0.900000E-01   1.00800           0
     14362 MEMB     116      PVCL2    CA6      CTL2    -0.180000       12.0110           0
     14363 MEMB     116      PVCL2    H6A      HAL2     0.900000E-01   1.00800           0
     14364 MEMB     116      PVCL2    H6B      HAL2     0.900000E-01   1.00800           0
     14365 MEMB     116      PVCL2    CA7      CTL2    -0.180000       12.0110           0
     14366 MEMB     116      PVCL2    H7A      HAL2     0.900000E-01   1.00800           0
     14367 MEMB     116      PVCL2    H7B      HAL2     0.900000E-01   1.00800           0
     14368 MEMB     116      PVCL2    CA8      CTL2    -0.180000       12.0110           0
     14369 MEMB     116      PVCL2    H8A      HAL2     0.900000E-01   1.00800           0
     14370 MEMB     116      PVCL2    H8B      HAL2     0.900000E-01   1.00800           0
     14371 MEMB     116      PVCL2    CA9      CTL2    -0.180000       12.0110           0
     14372 MEMB     116      PVCL2    H9A      HAL2     0.900000E-01   1.00800           0
     14373 MEMB     116      PVCL2    H9B      HAL2     0.900000E-01   1.00800           0
     14374 MEMB     116      PVCL2    CA10     CTL2    -0.180000       12.0110           0
     14375 MEMB     116      PVCL2    H10A     HAL2     0.900000E-01   1.00800           0
     14376 MEMB     116      PVCL2    H10B     HAL2     0.900000E-01   1.00800           0
     14377 MEMB     116      PVCL2    CA11     CEL1    -0.150000       12.0110           0
     14378 MEMB     116      PVCL2    H11A     HEL1     0.150000       1.00800           0
     14379 MEMB     116      PVCL2    CA12     CEL1    -0.150000       12.0110           0
     14380 MEMB     116      PVCL2    H12A     HEL1     0.150000       1.00800           0
     14381 MEMB     116      PVCL2    CA13     CTL2    -0.180000       12.0110           0
     14382 MEMB     116      PVCL2    H13A     HAL2     0.900000E-01   1.00800           0
     14383 MEMB     116      PVCL2    H13B     HAL2     0.900000E-01   1.00800           0
     14384 MEMB     116      PVCL2    CA14     CTL2    -0.180000       12.0110           0
     14385 MEMB     116      PVCL2    H14A     HAL2     0.900000E-01   1.00800           0
     14386 MEMB     116      PVCL2    H14B     HAL2     0.900000E-01   1.00800           0
     14387 MEMB     116      PVCL2    CA15     CTL2    -0.180000       12.0110           0
     14388 MEMB     116      PVCL2    H15A     HAL2     0.900000E-01   1.00800           0
     14389 MEMB     116      PVCL2    H15B     HAL2     0.900000E-01   1.00800           0
     14390 MEMB     116      PVCL2    CA16     CTL2    -0.180000       12.0110           0
     14391 MEMB     116      PVCL2    H16A     HAL2     0.900000E-01   1.00800           0
     14392 MEMB     116      PVCL2    H16B     HAL2     0.900000E-01   1.00800           0
     14393 MEMB     116      PVCL2    CA17     CTL2    -0.180000       12.0110           0
     14394 MEMB     116      PVCL2    H17A     HAL2     0.900000E-01   1.00800           0
     14395 MEMB     116      PVCL2    H17B     HAL2     0.900000E-01   1.00800           0
     14396 MEMB     116      PVCL2    CA18     CTL3    -0.270000       12.0110           0
     14397 MEMB     116      PVCL2    H18A     HAL3     0.900000E-01   1.00800           0
     14398 MEMB     116      PVCL2    H18B     HAL3     0.900000E-01   1.00800           0
     14399 MEMB     116      PVCL2    H18C     HAL3     0.900000E-01   1.00800           0
     14400 MEMB     116      PVCL2    CB3      CTL2    -0.180000       12.0110           0
     14401 MEMB     116      PVCL2    H3D      HAL2     0.900000E-01   1.00800           0
     14402 MEMB     116      PVCL2    H3E      HAL2     0.900000E-01   1.00800           0
     14403 MEMB     116      PVCL2    CB4      CTL2    -0.180000       12.0110           0
     14404 MEMB     116      PVCL2    H4D      HAL2     0.900000E-01   1.00800           0
     14405 MEMB     116      PVCL2    H4E      HAL2     0.900000E-01   1.00800           0
     14406 MEMB     116      PVCL2    CB5      CTL2    -0.180000       12.0110           0
     14407 MEMB     116      PVCL2    H5D      HAL2     0.900000E-01   1.00800           0
     14408 MEMB     116      PVCL2    H5E      HAL2     0.900000E-01   1.00800           0
     14409 MEMB     116      PVCL2    CB6      CTL2    -0.180000       12.0110           0
     14410 MEMB     116      PVCL2    H6D      HAL2     0.900000E-01   1.00800           0
     14411 MEMB     116      PVCL2    H6E      HAL2     0.900000E-01   1.00800           0
     14412 MEMB     116      PVCL2    CB7      CTL2    -0.180000       12.0110           0
     14413 MEMB     116      PVCL2    H7D      HAL2     0.900000E-01   1.00800           0
     14414 MEMB     116      PVCL2    H7E      HAL2     0.900000E-01   1.00800           0
     14415 MEMB     116      PVCL2    CB8      CTL2    -0.180000       12.0110           0
     14416 MEMB     116      PVCL2    H8D      HAL2     0.900000E-01   1.00800           0
     14417 MEMB     116      PVCL2    H8E      HAL2     0.900000E-01   1.00800           0
     14418 MEMB     116      PVCL2    CB9      CTL2    -0.180000       12.0110           0
     14419 MEMB     116      PVCL2    H9D      HAL2     0.900000E-01   1.00800           0
     14420 MEMB     116      PVCL2    H9E      HAL2     0.900000E-01   1.00800           0
     14421 MEMB     116      PVCL2    CB10     CTL2    -0.180000       12.0110           0
     14422 MEMB     116      PVCL2    H10D     HAL2     0.900000E-01   1.00800           0
     14423 MEMB     116      PVCL2    H10E     HAL2     0.900000E-01   1.00800           0
     14424 MEMB     116      PVCL2    CB11     CTL2    -0.180000       12.0110           0
     14425 MEMB     116      PVCL2    H11D     HAL2     0.900000E-01   1.00800           0
     14426 MEMB     116      PVCL2    H11E     HAL2     0.900000E-01   1.00800           0
     14427 MEMB     116      PVCL2    CB12     CTL2    -0.180000       12.0110           0
     14428 MEMB     116      PVCL2    H12D     HAL2     0.900000E-01   1.00800           0
     14429 MEMB     116      PVCL2    H12E     HAL2     0.900000E-01   1.00800           0
     14430 MEMB     116      PVCL2    CB13     CTL2    -0.180000       12.0110           0
     14431 MEMB     116      PVCL2    H13D     HAL2     0.900000E-01   1.00800           0
     14432 MEMB     116      PVCL2    H13E     HAL2     0.900000E-01   1.00800           0
     14433 MEMB     116      PVCL2    CB14     CTL2    -0.180000       12.0110           0
     14434 MEMB     116      PVCL2    H14D     HAL2     0.900000E-01   1.00800           0
     14435 MEMB     116      PVCL2    H14E     HAL2     0.900000E-01   1.00800           0
     14436 MEMB     116      PVCL2    CB15     CTL2    -0.180000       12.0110           0
     14437 MEMB     116      PVCL2    H15D     HAL2     0.900000E-01   1.00800           0
     14438 MEMB     116      PVCL2    H15E     HAL2     0.900000E-01   1.00800           0
     14439 MEMB     116      PVCL2    CB16     CTL3    -0.270000       12.0110           0
     14440 MEMB     116      PVCL2    H16D     HAL3     0.900000E-01   1.00800           0
     14441 MEMB     116      PVCL2    H16E     HAL3     0.900000E-01   1.00800           0
     14442 MEMB     116      PVCL2    H16F     HAL3     0.900000E-01   1.00800           0
     14443 MEMB     116      PVCL2    CC3      CTL2    -0.180000       12.0110           0
     14444 MEMB     116      PVCL2    H3R      HAL2     0.900000E-01   1.00800           0
     14445 MEMB     116      PVCL2    H3S      HAL2     0.900000E-01   1.00800           0
     14446 MEMB     116      PVCL2    CC4      CTL2    -0.180000       12.0110           0
     14447 MEMB     116      PVCL2    H4R      HAL2     0.900000E-01   1.00800           0
     14448 MEMB     116      PVCL2    H4S      HAL2     0.900000E-01   1.00800           0
     14449 MEMB     116      PVCL2    CC5      CTL2    -0.180000       12.0110           0
     14450 MEMB     116      PVCL2    H5R      HAL2     0.900000E-01   1.00800           0
     14451 MEMB     116      PVCL2    H5S      HAL2     0.900000E-01   1.00800           0
     14452 MEMB     116      PVCL2    CC6      CTL2    -0.180000       12.0110           0
     14453 MEMB     116      PVCL2    H6R      HAL2     0.900000E-01   1.00800           0
     14454 MEMB     116      PVCL2    H6S      HAL2     0.900000E-01   1.00800           0
     14455 MEMB     116      PVCL2    CC7      CTL2    -0.180000       12.0110           0
     14456 MEMB     116      PVCL2    H7R      HAL2     0.900000E-01   1.00800           0
     14457 MEMB     116      PVCL2    H7S      HAL2     0.900000E-01   1.00800           0
     14458 MEMB     116      PVCL2    CC8      CTL2    -0.180000       12.0110           0
     14459 MEMB     116      PVCL2    H8R      HAL2     0.900000E-01   1.00800           0
     14460 MEMB     116      PVCL2    H8S      HAL2     0.900000E-01   1.00800           0
     14461 MEMB     116      PVCL2    CC9      CTL2    -0.180000       12.0110           0
     14462 MEMB     116      PVCL2    H9R      HAL2     0.900000E-01   1.00800           0
     14463 MEMB     116      PVCL2    H9S      HAL2     0.900000E-01   1.00800           0
     14464 MEMB     116      PVCL2    CC10     CTL2    -0.180000       12.0110           0
     14465 MEMB     116      PVCL2    H10R     HAL2     0.900000E-01   1.00800           0
     14466 MEMB     116      PVCL2    H10S     HAL2     0.900000E-01   1.00800           0
     14467 MEMB     116      PVCL2    CC11     CEL1    -0.150000       12.0110           0
     14468 MEMB     116      PVCL2    H11R     HEL1     0.150000       1.00800           0
     14469 MEMB     116      PVCL2    CC12     CEL1    -0.150000       12.0110           0
     14470 MEMB     116      PVCL2    H12R     HEL1     0.150000       1.00800           0
     14471 MEMB     116      PVCL2    CC13     CTL2    -0.180000       12.0110           0
     14472 MEMB     116      PVCL2    H13R     HAL2     0.900000E-01   1.00800           0
     14473 MEMB     116      PVCL2    H13S     HAL2     0.900000E-01   1.00800           0
     14474 MEMB     116      PVCL2    CC14     CTL2    -0.180000       12.0110           0
     14475 MEMB     116      PVCL2    H14R     HAL2     0.900000E-01   1.00800           0
     14476 MEMB     116      PVCL2    H14S     HAL2     0.900000E-01   1.00800           0
     14477 MEMB     116      PVCL2    CC15     CTL2    -0.180000       12.0110           0
     14478 MEMB     116      PVCL2    H15R     HAL2     0.900000E-01   1.00800           0
     14479 MEMB     116      PVCL2    H15S     HAL2     0.900000E-01   1.00800           0
     14480 MEMB     116      PVCL2    CC16     CTL2    -0.180000       12.0110           0
     14481 MEMB     116      PVCL2    H16R     HAL2     0.900000E-01   1.00800           0
     14482 MEMB     116      PVCL2    H16S     HAL2     0.900000E-01   1.00800           0
     14483 MEMB     116      PVCL2    CC17     CTL2    -0.180000       12.0110           0
     14484 MEMB     116      PVCL2    H17R     HAL2     0.900000E-01   1.00800           0
     14485 MEMB     116      PVCL2    H17S     HAL2     0.900000E-01   1.00800           0
     14486 MEMB     116      PVCL2    CC18     CTL3    -0.270000       12.0110           0
     14487 MEMB     116      PVCL2    H18R     HAL3     0.900000E-01   1.00800           0
     14488 MEMB     116      PVCL2    H18S     HAL3     0.900000E-01   1.00800           0
     14489 MEMB     116      PVCL2    H18T     HAL3     0.900000E-01   1.00800           0
     14490 MEMB     116      PVCL2    CD3      CTL2    -0.180000       12.0110           0
     14491 MEMB     116      PVCL2    H3X      HAL2     0.900000E-01   1.00800           0
     14492 MEMB     116      PVCL2    H3Y      HAL2     0.900000E-01   1.00800           0
     14493 MEMB     116      PVCL2    CD4      CTL2    -0.180000       12.0110           0
     14494 MEMB     116      PVCL2    H4X      HAL2     0.900000E-01   1.00800           0
     14495 MEMB     116      PVCL2    H4Y      HAL2     0.900000E-01   1.00800           0
     14496 MEMB     116      PVCL2    CD5      CTL2    -0.180000       12.0110           0
     14497 MEMB     116      PVCL2    H5X      HAL2     0.900000E-01   1.00800           0
     14498 MEMB     116      PVCL2    H5Y      HAL2     0.900000E-01   1.00800           0
     14499 MEMB     116      PVCL2    CD6      CTL2    -0.180000       12.0110           0
     14500 MEMB     116      PVCL2    H6X      HAL2     0.900000E-01   1.00800           0
     14501 MEMB     116      PVCL2    H6Y      HAL2     0.900000E-01   1.00800           0
     14502 MEMB     116      PVCL2    CD7      CTL2    -0.180000       12.0110           0
     14503 MEMB     116      PVCL2    H7X      HAL2     0.900000E-01   1.00800           0
     14504 MEMB     116      PVCL2    H7Y      HAL2     0.900000E-01   1.00800           0
     14505 MEMB     116      PVCL2    CD8      CTL2    -0.180000       12.0110           0
     14506 MEMB     116      PVCL2    H8X      HAL2     0.900000E-01   1.00800           0
     14507 MEMB     116      PVCL2    H8Y      HAL2     0.900000E-01   1.00800           0
     14508 MEMB     116      PVCL2    CD9      CTL2    -0.180000       12.0110           0
     14509 MEMB     116      PVCL2    H9X      HAL2     0.900000E-01   1.00800           0
     14510 MEMB     116      PVCL2    H9Y      HAL2     0.900000E-01   1.00800           0
     14511 MEMB     116      PVCL2    CD10     CTL2    -0.180000       12.0110           0
     14512 MEMB     116      PVCL2    H10X     HAL2     0.900000E-01   1.00800           0
     14513 MEMB     116      PVCL2    H10Y     HAL2     0.900000E-01   1.00800           0
     14514 MEMB     116      PVCL2    CD11     CTL2    -0.180000       12.0110           0
     14515 MEMB     116      PVCL2    H11X     HAL2     0.900000E-01   1.00800           0
     14516 MEMB     116      PVCL2    H11Y     HAL2     0.900000E-01   1.00800           0
     14517 MEMB     116      PVCL2    CD12     CTL2    -0.180000       12.0110           0
     14518 MEMB     116      PVCL2    H12X     HAL2     0.900000E-01   1.00800           0
     14519 MEMB     116      PVCL2    H12Y     HAL2     0.900000E-01   1.00800           0
     14520 MEMB     116      PVCL2    CD13     CTL2    -0.180000       12.0110           0
     14521 MEMB     116      PVCL2    H13X     HAL2     0.900000E-01   1.00800           0
     14522 MEMB     116      PVCL2    H13Y     HAL2     0.900000E-01   1.00800           0
     14523 MEMB     116      PVCL2    CD14     CTL2    -0.180000       12.0110           0
     14524 MEMB     116      PVCL2    H14X     HAL2     0.900000E-01   1.00800           0
     14525 MEMB     116      PVCL2    H14Y     HAL2     0.900000E-01   1.00800           0
     14526 MEMB     116      PVCL2    CD15     CTL2    -0.180000       12.0110           0
     14527 MEMB     116      PVCL2    H15X     HAL2     0.900000E-01   1.00800           0
     14528 MEMB     116      PVCL2    H15Y     HAL2     0.900000E-01   1.00800           0
     14529 MEMB     116      PVCL2    CD16     CTL3    -0.270000       12.0110           0
     14530 MEMB     116      PVCL2    H16X     HAL3     0.900000E-01   1.00800           0
     14531 MEMB     116      PVCL2    H16Y     HAL3     0.900000E-01   1.00800           0
     14532 MEMB     116      PVCL2    H16Z     HAL3     0.900000E-01   1.00800           0
     14533 MEMB     117      QMPE     N        NH3L    -0.300000       14.0070           0
     14534 MEMB     117      QMPE     HN1      HCL      0.330000       1.00800           0
     14535 MEMB     117      QMPE     HN2      HCL      0.330000       1.00800           0
     14536 MEMB     117      QMPE     HN3      HCL      0.330000       1.00800           0
     14537 MEMB     117      QMPE     C12      CTL2     0.130000       12.0110           0
     14538 MEMB     117      QMPE     H12A     HAL2     0.900000E-01   1.00800           0
     14539 MEMB     117      QMPE     H12B     HAL2     0.900000E-01   1.00800           0
     14540 MEMB     117      QMPE     C11      CTL2    -0.800000E-01   12.0110           0
     14541 MEMB     117      QMPE     H11A     HAL2     0.900000E-01   1.00800           0
     14542 MEMB     117      QMPE     H11B     HAL2     0.900000E-01   1.00800           0
     14543 MEMB     117      QMPE     P        PL        1.50000       30.9740           0
     14544 MEMB     117      QMPE     O13      O2L     -0.780000       15.9994           0
     14545 MEMB     117      QMPE     O14      O2L     -0.780000       15.9994           0
     14546 MEMB     117      QMPE     O11      OSLP    -0.570000       15.9994           0
     14547 MEMB     117      QMPE     O12      OSLP    -0.570000       15.9994           0
     14548 MEMB     117      QMPE     C1       CTL2    -0.800000E-01   12.0110           0
     14549 MEMB     117      QMPE     HA       HAL2     0.900000E-01   1.00800           0
     14550 MEMB     117      QMPE     HB       HAL2     0.900000E-01   1.00800           0
     14551 MEMB     117      QMPE     C2       CTL1     0.170000       12.0110           0
     14552 MEMB     117      QMPE     HS       HAL1     0.900000E-01   1.00800           0
     14553 MEMB     117      QMPE     O21      OSL     -0.490000       15.9994           0
     14554 MEMB     117      QMPE     C21      CL       0.900000       12.0110           0
     14555 MEMB     117      QMPE     O22      OBL     -0.630000       15.9994           0
     14556 MEMB     117      QMPE     C22      CTL2    -0.220000       12.0110           0
     14557 MEMB     117      QMPE     H2R      HAL2     0.900000E-01   1.00800           0
     14558 MEMB     117      QMPE     H2S      HAL2     0.900000E-01   1.00800           0
     14559 MEMB     117      QMPE     C3       CTL2     0.800000E-01   12.0110           0
     14560 MEMB     117      QMPE     HX       HAL2     0.900000E-01   1.00800           0
     14561 MEMB     117      QMPE     HY       HAL2     0.900000E-01   1.00800           0
     14562 MEMB     117      QMPE     O31      OSL     -0.490000       15.9994           0
     14563 MEMB     117      QMPE     C31      CL       0.900000       12.0110           0
     14564 MEMB     117      QMPE     O32      OBL     -0.630000       15.9994           0
     14565 MEMB     117      QMPE     C32      CTL2    -0.220000       12.0110           0
     14566 MEMB     117      QMPE     H2X      HAL2     0.900000E-01   1.00800           0
     14567 MEMB     117      QMPE     H2Y      HAL2     0.900000E-01   1.00800           0
     14568 MEMB     117      QMPE     C23      CTL2    -0.180000       12.0110           0
     14569 MEMB     117      QMPE     H3R      HAL2     0.900000E-01   1.00800           0
     14570 MEMB     117      QMPE     H3S      HAL2     0.900000E-01   1.00800           0
     14571 MEMB     117      QMPE     C24      CTL2    -0.180000       12.0110           0
     14572 MEMB     117      QMPE     H4R      HAL2     0.900000E-01   1.00800           0
     14573 MEMB     117      QMPE     H4S      HAL2     0.900000E-01   1.00800           0
     14574 MEMB     117      QMPE     C25      CTL2    -0.180000       12.0110           0
     14575 MEMB     117      QMPE     H5R      HAL2     0.900000E-01   1.00800           0
     14576 MEMB     117      QMPE     H5S      HAL2     0.900000E-01   1.00800           0
     14577 MEMB     117      QMPE     C26      CTL2    -0.180000       12.0110           0
     14578 MEMB     117      QMPE     H6R      HAL2     0.900000E-01   1.00800           0
     14579 MEMB     117      QMPE     H6S      HAL2     0.900000E-01   1.00800           0
     14580 MEMB     117      QMPE     C27      CTL2    -0.180000       12.0110           0
     14581 MEMB     117      QMPE     H7R      HAL2     0.900000E-01   1.00800           0
     14582 MEMB     117      QMPE     H7S      HAL2     0.900000E-01   1.00800           0
     14583 MEMB     117      QMPE     C28      CTL2    -0.180000       12.0110           0
     14584 MEMB     117      QMPE     H8R      HAL2     0.900000E-01   1.00800           0
     14585 MEMB     117      QMPE     H8S      HAL2     0.900000E-01   1.00800           0
     14586 MEMB     117      QMPE     C29      CG3RC1  -0.900000E-01   12.0110           0
     14587 MEMB     117      QMPE     H9R      HGA1     0.900000E-01   1.00800           0
     14588 MEMB     117      QMPE     C217     CG3C31  -0.180000       12.0110           0
     14589 MEMB     117      QMPE     H17R     HGA2     0.900000E-01   1.00800           0
     14590 MEMB     117      QMPE     H17S     HGA2     0.900000E-01   1.00800           0
     14591 MEMB     117      QMPE     C210     CG3RC1  -0.900000E-01   12.0110           0
     14592 MEMB     117      QMPE     H10R     HGA1     0.900000E-01   1.00800           0
     14593 MEMB     117      QMPE     C211     CTL2    -0.180000       12.0110           0
     14594 MEMB     117      QMPE     H11R     HAL2     0.900000E-01   1.00800           0
     14595 MEMB     117      QMPE     H11S     HAL2     0.900000E-01   1.00800           0
     14596 MEMB     117      QMPE     C212     CTL2    -0.180000       12.0110           0
     14597 MEMB     117      QMPE     H12R     HAL2     0.900000E-01   1.00800           0
     14598 MEMB     117      QMPE     H12S     HAL2     0.900000E-01   1.00800           0
     14599 MEMB     117      QMPE     C213     CTL2    -0.180000       12.0110           0
     14600 MEMB     117      QMPE     H13R     HAL2     0.900000E-01   1.00800           0
     14601 MEMB     117      QMPE     H13S     HAL2     0.900000E-01   1.00800           0
     14602 MEMB     117      QMPE     C214     CTL2    -0.180000       12.0110           0
     14603 MEMB     117      QMPE     H14R     HAL2     0.900000E-01   1.00800           0
     14604 MEMB     117      QMPE     H14S     HAL2     0.900000E-01   1.00800           0
     14605 MEMB     117      QMPE     C215     CTL2    -0.180000       12.0110           0
     14606 MEMB     117      QMPE     H15R     HAL2     0.900000E-01   1.00800           0
     14607 MEMB     117      QMPE     H15S     HAL2     0.900000E-01   1.00800           0
     14608 MEMB     117      QMPE     C216     CTL3    -0.270000       12.0110           0
     14609 MEMB     117      QMPE     H16R     HAL3     0.900000E-01   1.00800           0
     14610 MEMB     117      QMPE     H16S     HAL3     0.900000E-01   1.00800           0
     14611 MEMB     117      QMPE     H16T     HAL3     0.900000E-01   1.00800           0
     14612 MEMB     117      QMPE     C33      CTL2    -0.180000       12.0110           0
     14613 MEMB     117      QMPE     H3X      HAL2     0.900000E-01   1.00800           0
     14614 MEMB     117      QMPE     H3Y      HAL2     0.900000E-01   1.00800           0
     14615 MEMB     117      QMPE     C34      CTL2    -0.180000       12.0110           0
     14616 MEMB     117      QMPE     H4X      HAL2     0.900000E-01   1.00800           0
     14617 MEMB     117      QMPE     H4Y      HAL2     0.900000E-01   1.00800           0
     14618 MEMB     117      QMPE     C35      CTL2    -0.180000       12.0110           0
     14619 MEMB     117      QMPE     H5X      HAL2     0.900000E-01   1.00800           0
     14620 MEMB     117      QMPE     H5Y      HAL2     0.900000E-01   1.00800           0
     14621 MEMB     117      QMPE     C36      CTL2    -0.180000       12.0110           0
     14622 MEMB     117      QMPE     H6X      HAL2     0.900000E-01   1.00800           0
     14623 MEMB     117      QMPE     H6Y      HAL2     0.900000E-01   1.00800           0
     14624 MEMB     117      QMPE     C37      CTL2    -0.180000       12.0110           0
     14625 MEMB     117      QMPE     H7X      HAL2     0.900000E-01   1.00800           0
     14626 MEMB     117      QMPE     H7Y      HAL2     0.900000E-01   1.00800           0
     14627 MEMB     117      QMPE     C38      CTL2    -0.180000       12.0110           0
     14628 MEMB     117      QMPE     H8X      HAL2     0.900000E-01   1.00800           0
     14629 MEMB     117      QMPE     H8Y      HAL2     0.900000E-01   1.00800           0
     14630 MEMB     117      QMPE     C39      CTL2    -0.180000       12.0110           0
     14631 MEMB     117      QMPE     H9X      HAL2     0.900000E-01   1.00800           0
     14632 MEMB     117      QMPE     H9Y      HAL2     0.900000E-01   1.00800           0
     14633 MEMB     117      QMPE     C310     CTL2    -0.180000       12.0110           0
     14634 MEMB     117      QMPE     H10X     HAL2     0.900000E-01   1.00800           0
     14635 MEMB     117      QMPE     H10Y     HAL2     0.900000E-01   1.00800           0
     14636 MEMB     117      QMPE     C311     CTL2    -0.180000       12.0110           0
     14637 MEMB     117      QMPE     H11X     HAL2     0.900000E-01   1.00800           0
     14638 MEMB     117      QMPE     H11Y     HAL2     0.900000E-01   1.00800           0
     14639 MEMB     117      QMPE     C312     CTL2    -0.180000       12.0110           0
     14640 MEMB     117      QMPE     H12X     HAL2     0.900000E-01   1.00800           0
     14641 MEMB     117      QMPE     H12Y     HAL2     0.900000E-01   1.00800           0
     14642 MEMB     117      QMPE     C313     CTL2    -0.180000       12.0110           0
     14643 MEMB     117      QMPE     H13X     HAL2     0.900000E-01   1.00800           0
     14644 MEMB     117      QMPE     H13Y     HAL2     0.900000E-01   1.00800           0
     14645 MEMB     117      QMPE     C314     CTL2    -0.180000       12.0110           0
     14646 MEMB     117      QMPE     H14X     HAL2     0.900000E-01   1.00800           0
     14647 MEMB     117      QMPE     H14Y     HAL2     0.900000E-01   1.00800           0
     14648 MEMB     117      QMPE     C315     CTL3    -0.270000       12.0110           0
     14649 MEMB     117      QMPE     H15X     HAL3     0.900000E-01   1.00800           0
     14650 MEMB     117      QMPE     H15Y     HAL3     0.900000E-01   1.00800           0
     14651 MEMB     117      QMPE     H15Z     HAL3     0.900000E-01   1.00800           0
     14652 MEMB     118      QMPE     N        NH3L    -0.300000       14.0070           0
     14653 MEMB     118      QMPE     HN1      HCL      0.330000       1.00800           0
     14654 MEMB     118      QMPE     HN2      HCL      0.330000       1.00800           0
     14655 MEMB     118      QMPE     HN3      HCL      0.330000       1.00800           0
     14656 MEMB     118      QMPE     C12      CTL2     0.130000       12.0110           0
     14657 MEMB     118      QMPE     H12A     HAL2     0.900000E-01   1.00800           0
     14658 MEMB     118      QMPE     H12B     HAL2     0.900000E-01   1.00800           0
     14659 MEMB     118      QMPE     C11      CTL2    -0.800000E-01   12.0110           0
     14660 MEMB     118      QMPE     H11A     HAL2     0.900000E-01   1.00800           0
     14661 MEMB     118      QMPE     H11B     HAL2     0.900000E-01   1.00800           0
     14662 MEMB     118      QMPE     P        PL        1.50000       30.9740           0
     14663 MEMB     118      QMPE     O13      O2L     -0.780000       15.9994           0
     14664 MEMB     118      QMPE     O14      O2L     -0.780000       15.9994           0
     14665 MEMB     118      QMPE     O11      OSLP    -0.570000       15.9994           0
     14666 MEMB     118      QMPE     O12      OSLP    -0.570000       15.9994           0
     14667 MEMB     118      QMPE     C1       CTL2    -0.800000E-01   12.0110           0
     14668 MEMB     118      QMPE     HA       HAL2     0.900000E-01   1.00800           0
     14669 MEMB     118      QMPE     HB       HAL2     0.900000E-01   1.00800           0
     14670 MEMB     118      QMPE     C2       CTL1     0.170000       12.0110           0
     14671 MEMB     118      QMPE     HS       HAL1     0.900000E-01   1.00800           0
     14672 MEMB     118      QMPE     O21      OSL     -0.490000       15.9994           0
     14673 MEMB     118      QMPE     C21      CL       0.900000       12.0110           0
     14674 MEMB     118      QMPE     O22      OBL     -0.630000       15.9994           0
     14675 MEMB     118      QMPE     C22      CTL2    -0.220000       12.0110           0
     14676 MEMB     118      QMPE     H2R      HAL2     0.900000E-01   1.00800           0
     14677 MEMB     118      QMPE     H2S      HAL2     0.900000E-01   1.00800           0
     14678 MEMB     118      QMPE     C3       CTL2     0.800000E-01   12.0110           0
     14679 MEMB     118      QMPE     HX       HAL2     0.900000E-01   1.00800           0
     14680 MEMB     118      QMPE     HY       HAL2     0.900000E-01   1.00800           0
     14681 MEMB     118      QMPE     O31      OSL     -0.490000       15.9994           0
     14682 MEMB     118      QMPE     C31      CL       0.900000       12.0110           0
     14683 MEMB     118      QMPE     O32      OBL     -0.630000       15.9994           0
     14684 MEMB     118      QMPE     C32      CTL2    -0.220000       12.0110           0
     14685 MEMB     118      QMPE     H2X      HAL2     0.900000E-01   1.00800           0
     14686 MEMB     118      QMPE     H2Y      HAL2     0.900000E-01   1.00800           0
     14687 MEMB     118      QMPE     C23      CTL2    -0.180000       12.0110           0
     14688 MEMB     118      QMPE     H3R      HAL2     0.900000E-01   1.00800           0
     14689 MEMB     118      QMPE     H3S      HAL2     0.900000E-01   1.00800           0
     14690 MEMB     118      QMPE     C24      CTL2    -0.180000       12.0110           0
     14691 MEMB     118      QMPE     H4R      HAL2     0.900000E-01   1.00800           0
     14692 MEMB     118      QMPE     H4S      HAL2     0.900000E-01   1.00800           0
     14693 MEMB     118      QMPE     C25      CTL2    -0.180000       12.0110           0
     14694 MEMB     118      QMPE     H5R      HAL2     0.900000E-01   1.00800           0
     14695 MEMB     118      QMPE     H5S      HAL2     0.900000E-01   1.00800           0
     14696 MEMB     118      QMPE     C26      CTL2    -0.180000       12.0110           0
     14697 MEMB     118      QMPE     H6R      HAL2     0.900000E-01   1.00800           0
     14698 MEMB     118      QMPE     H6S      HAL2     0.900000E-01   1.00800           0
     14699 MEMB     118      QMPE     C27      CTL2    -0.180000       12.0110           0
     14700 MEMB     118      QMPE     H7R      HAL2     0.900000E-01   1.00800           0
     14701 MEMB     118      QMPE     H7S      HAL2     0.900000E-01   1.00800           0
     14702 MEMB     118      QMPE     C28      CTL2    -0.180000       12.0110           0
     14703 MEMB     118      QMPE     H8R      HAL2     0.900000E-01   1.00800           0
     14704 MEMB     118      QMPE     H8S      HAL2     0.900000E-01   1.00800           0
     14705 MEMB     118      QMPE     C29      CG3RC1  -0.900000E-01   12.0110           0
     14706 MEMB     118      QMPE     H9R      HGA1     0.900000E-01   1.00800           0
     14707 MEMB     118      QMPE     C217     CG3C31  -0.180000       12.0110           0
     14708 MEMB     118      QMPE     H17R     HGA2     0.900000E-01   1.00800           0
     14709 MEMB     118      QMPE     H17S     HGA2     0.900000E-01   1.00800           0
     14710 MEMB     118      QMPE     C210     CG3RC1  -0.900000E-01   12.0110           0
     14711 MEMB     118      QMPE     H10R     HGA1     0.900000E-01   1.00800           0
     14712 MEMB     118      QMPE     C211     CTL2    -0.180000       12.0110           0
     14713 MEMB     118      QMPE     H11R     HAL2     0.900000E-01   1.00800           0
     14714 MEMB     118      QMPE     H11S     HAL2     0.900000E-01   1.00800           0
     14715 MEMB     118      QMPE     C212     CTL2    -0.180000       12.0110           0
     14716 MEMB     118      QMPE     H12R     HAL2     0.900000E-01   1.00800           0
     14717 MEMB     118      QMPE     H12S     HAL2     0.900000E-01   1.00800           0
     14718 MEMB     118      QMPE     C213     CTL2    -0.180000       12.0110           0
     14719 MEMB     118      QMPE     H13R     HAL2     0.900000E-01   1.00800           0
     14720 MEMB     118      QMPE     H13S     HAL2     0.900000E-01   1.00800           0
     14721 MEMB     118      QMPE     C214     CTL2    -0.180000       12.0110           0
     14722 MEMB     118      QMPE     H14R     HAL2     0.900000E-01   1.00800           0
     14723 MEMB     118      QMPE     H14S     HAL2     0.900000E-01   1.00800           0
     14724 MEMB     118      QMPE     C215     CTL2    -0.180000       12.0110           0
     14725 MEMB     118      QMPE     H15R     HAL2     0.900000E-01   1.00800           0
     14726 MEMB     118      QMPE     H15S     HAL2     0.900000E-01   1.00800           0
     14727 MEMB     118      QMPE     C216     CTL3    -0.270000       12.0110           0
     14728 MEMB     118      QMPE     H16R     HAL3     0.900000E-01   1.00800           0
     14729 MEMB     118      QMPE     H16S     HAL3     0.900000E-01   1.00800           0
     14730 MEMB     118      QMPE     H16T     HAL3     0.900000E-01   1.00800           0
     14731 MEMB     118      QMPE     C33      CTL2    -0.180000       12.0110           0
     14732 MEMB     118      QMPE     H3X      HAL2     0.900000E-01   1.00800           0
     14733 MEMB     118      QMPE     H3Y      HAL2     0.900000E-01   1.00800           0
     14734 MEMB     118      QMPE     C34      CTL2    -0.180000       12.0110           0
     14735 MEMB     118      QMPE     H4X      HAL2     0.900000E-01   1.00800           0
     14736 MEMB     118      QMPE     H4Y      HAL2     0.900000E-01   1.00800           0
     14737 MEMB     118      QMPE     C35      CTL2    -0.180000       12.0110           0
     14738 MEMB     118      QMPE     H5X      HAL2     0.900000E-01   1.00800           0
     14739 MEMB     118      QMPE     H5Y      HAL2     0.900000E-01   1.00800           0
     14740 MEMB     118      QMPE     C36      CTL2    -0.180000       12.0110           0
     14741 MEMB     118      QMPE     H6X      HAL2     0.900000E-01   1.00800           0
     14742 MEMB     118      QMPE     H6Y      HAL2     0.900000E-01   1.00800           0
     14743 MEMB     118      QMPE     C37      CTL2    -0.180000       12.0110           0
     14744 MEMB     118      QMPE     H7X      HAL2     0.900000E-01   1.00800           0
     14745 MEMB     118      QMPE     H7Y      HAL2     0.900000E-01   1.00800           0
     14746 MEMB     118      QMPE     C38      CTL2    -0.180000       12.0110           0
     14747 MEMB     118      QMPE     H8X      HAL2     0.900000E-01   1.00800           0
     14748 MEMB     118      QMPE     H8Y      HAL2     0.900000E-01   1.00800           0
     14749 MEMB     118      QMPE     C39      CTL2    -0.180000       12.0110           0
     14750 MEMB     118      QMPE     H9X      HAL2     0.900000E-01   1.00800           0
     14751 MEMB     118      QMPE     H9Y      HAL2     0.900000E-01   1.00800           0
     14752 MEMB     118      QMPE     C310     CTL2    -0.180000       12.0110           0
     14753 MEMB     118      QMPE     H10X     HAL2     0.900000E-01   1.00800           0
     14754 MEMB     118      QMPE     H10Y     HAL2     0.900000E-01   1.00800           0
     14755 MEMB     118      QMPE     C311     CTL2    -0.180000       12.0110           0
     14756 MEMB     118      QMPE     H11X     HAL2     0.900000E-01   1.00800           0
     14757 MEMB     118      QMPE     H11Y     HAL2     0.900000E-01   1.00800           0
     14758 MEMB     118      QMPE     C312     CTL2    -0.180000       12.0110           0
     14759 MEMB     118      QMPE     H12X     HAL2     0.900000E-01   1.00800           0
     14760 MEMB     118      QMPE     H12Y     HAL2     0.900000E-01   1.00800           0
     14761 MEMB     118      QMPE     C313     CTL2    -0.180000       12.0110           0
     14762 MEMB     118      QMPE     H13X     HAL2     0.900000E-01   1.00800           0
     14763 MEMB     118      QMPE     H13Y     HAL2     0.900000E-01   1.00800           0
     14764 MEMB     118      QMPE     C314     CTL2    -0.180000       12.0110           0
     14765 MEMB     118      QMPE     H14X     HAL2     0.900000E-01   1.00800           0
     14766 MEMB     118      QMPE     H14Y     HAL2     0.900000E-01   1.00800           0
     14767 MEMB     118      QMPE     C315     CTL3    -0.270000       12.0110           0
     14768 MEMB     118      QMPE     H15X     HAL3     0.900000E-01   1.00800           0
     14769 MEMB     118      QMPE     H15Y     HAL3     0.900000E-01   1.00800           0
     14770 MEMB     118      QMPE     H15Z     HAL3     0.900000E-01   1.00800           0
     14771 MEMB     119      PMPE     N        NH3L    -0.300000       14.0070           0
     14772 MEMB     119      PMPE     HN1      HCL      0.330000       1.00800           0
     14773 MEMB     119      PMPE     HN2      HCL      0.330000       1.00800           0
     14774 MEMB     119      PMPE     HN3      HCL      0.330000       1.00800           0
     14775 MEMB     119      PMPE     C12      CTL2     0.130000       12.0110           0
     14776 MEMB     119      PMPE     H12A     HAL2     0.900000E-01   1.00800           0
     14777 MEMB     119      PMPE     H12B     HAL2     0.900000E-01   1.00800           0
     14778 MEMB     119      PMPE     C11      CTL2    -0.800000E-01   12.0110           0
     14779 MEMB     119      PMPE     H11A     HAL2     0.900000E-01   1.00800           0
     14780 MEMB     119      PMPE     H11B     HAL2     0.900000E-01   1.00800           0
     14781 MEMB     119      PMPE     P        PL        1.50000       30.9740           0
     14782 MEMB     119      PMPE     O13      O2L     -0.780000       15.9994           0
     14783 MEMB     119      PMPE     O14      O2L     -0.780000       15.9994           0
     14784 MEMB     119      PMPE     O11      OSLP    -0.570000       15.9994           0
     14785 MEMB     119      PMPE     O12      OSLP    -0.570000       15.9994           0
     14786 MEMB     119      PMPE     C1       CTL2    -0.800000E-01   12.0110           0
     14787 MEMB     119      PMPE     HA       HAL2     0.900000E-01   1.00800           0
     14788 MEMB     119      PMPE     HB       HAL2     0.900000E-01   1.00800           0
     14789 MEMB     119      PMPE     C2       CTL1     0.170000       12.0110           0
     14790 MEMB     119      PMPE     HS       HAL1     0.900000E-01   1.00800           0
     14791 MEMB     119      PMPE     O21      OSL     -0.490000       15.9994           0
     14792 MEMB     119      PMPE     C21      CL       0.900000       12.0110           0
     14793 MEMB     119      PMPE     O22      OBL     -0.630000       15.9994           0
     14794 MEMB     119      PMPE     C22      CTL2    -0.220000       12.0110           0
     14795 MEMB     119      PMPE     H2R      HAL2     0.900000E-01   1.00800           0
     14796 MEMB     119      PMPE     H2S      HAL2     0.900000E-01   1.00800           0
     14797 MEMB     119      PMPE     C3       CTL2     0.800000E-01   12.0110           0
     14798 MEMB     119      PMPE     HX       HAL2     0.900000E-01   1.00800           0
     14799 MEMB     119      PMPE     HY       HAL2     0.900000E-01   1.00800           0
     14800 MEMB     119      PMPE     O31      OSL     -0.490000       15.9994           0
     14801 MEMB     119      PMPE     C31      CL       0.900000       12.0110           0
     14802 MEMB     119      PMPE     O32      OBL     -0.630000       15.9994           0
     14803 MEMB     119      PMPE     C32      CTL2    -0.220000       12.0110           0
     14804 MEMB     119      PMPE     H2X      HAL2     0.900000E-01   1.00800           0
     14805 MEMB     119      PMPE     H2Y      HAL2     0.900000E-01   1.00800           0
     14806 MEMB     119      PMPE     C23      CTL2    -0.180000       12.0110           0
     14807 MEMB     119      PMPE     H3R      HAL2     0.900000E-01   1.00800           0
     14808 MEMB     119      PMPE     H3S      HAL2     0.900000E-01   1.00800           0
     14809 MEMB     119      PMPE     C24      CTL2    -0.180000       12.0110           0
     14810 MEMB     119      PMPE     H4R      HAL2     0.900000E-01   1.00800           0
     14811 MEMB     119      PMPE     H4S      HAL2     0.900000E-01   1.00800           0
     14812 MEMB     119      PMPE     C25      CTL2    -0.180000       12.0110           0
     14813 MEMB     119      PMPE     H5R      HAL2     0.900000E-01   1.00800           0
     14814 MEMB     119      PMPE     H5S      HAL2     0.900000E-01   1.00800           0
     14815 MEMB     119      PMPE     C26      CTL2    -0.180000       12.0110           0
     14816 MEMB     119      PMPE     H6R      HAL2     0.900000E-01   1.00800           0
     14817 MEMB     119      PMPE     H6S      HAL2     0.900000E-01   1.00800           0
     14818 MEMB     119      PMPE     C27      CTL2    -0.180000       12.0110           0
     14819 MEMB     119      PMPE     H7R      HAL2     0.900000E-01   1.00800           0
     14820 MEMB     119      PMPE     H7S      HAL2     0.900000E-01   1.00800           0
     14821 MEMB     119      PMPE     C28      CTL2    -0.180000       12.0110           0
     14822 MEMB     119      PMPE     H8R      HAL2     0.900000E-01   1.00800           0
     14823 MEMB     119      PMPE     H8S      HAL2     0.900000E-01   1.00800           0
     14824 MEMB     119      PMPE     C29      CG3RC1  -0.900000E-01   12.0110           0
     14825 MEMB     119      PMPE     H9R      HGA1     0.900000E-01   1.00800           0
     14826 MEMB     119      PMPE     C217     CG3C31  -0.180000       12.0110           0
     14827 MEMB     119      PMPE     H17R     HGA2     0.900000E-01   1.00800           0
     14828 MEMB     119      PMPE     H17S     HGA2     0.900000E-01   1.00800           0
     14829 MEMB     119      PMPE     C210     CG3RC1  -0.900000E-01   12.0110           0
     14830 MEMB     119      PMPE     H10R     HGA1     0.900000E-01   1.00800           0
     14831 MEMB     119      PMPE     C211     CTL2    -0.180000       12.0110           0
     14832 MEMB     119      PMPE     H11R     HAL2     0.900000E-01   1.00800           0
     14833 MEMB     119      PMPE     H11S     HAL2     0.900000E-01   1.00800           0
     14834 MEMB     119      PMPE     C212     CTL2    -0.180000       12.0110           0
     14835 MEMB     119      PMPE     H12R     HAL2     0.900000E-01   1.00800           0
     14836 MEMB     119      PMPE     H12S     HAL2     0.900000E-01   1.00800           0
     14837 MEMB     119      PMPE     C213     CTL2    -0.180000       12.0110           0
     14838 MEMB     119      PMPE     H13R     HAL2     0.900000E-01   1.00800           0
     14839 MEMB     119      PMPE     H13S     HAL2     0.900000E-01   1.00800           0
     14840 MEMB     119      PMPE     C214     CTL2    -0.180000       12.0110           0
     14841 MEMB     119      PMPE     H14R     HAL2     0.900000E-01   1.00800           0
     14842 MEMB     119      PMPE     H14S     HAL2     0.900000E-01   1.00800           0
     14843 MEMB     119      PMPE     C215     CTL2    -0.180000       12.0110           0
     14844 MEMB     119      PMPE     H15R     HAL2     0.900000E-01   1.00800           0
     14845 MEMB     119      PMPE     H15S     HAL2     0.900000E-01   1.00800           0
     14846 MEMB     119      PMPE     C216     CTL3    -0.270000       12.0110           0
     14847 MEMB     119      PMPE     H16R     HAL3     0.900000E-01   1.00800           0
     14848 MEMB     119      PMPE     H16S     HAL3     0.900000E-01   1.00800           0
     14849 MEMB     119      PMPE     H16T     HAL3     0.900000E-01   1.00800           0
     14850 MEMB     119      PMPE     C33      CTL2    -0.180000       12.0110           0
     14851 MEMB     119      PMPE     H3X      HAL2     0.900000E-01   1.00800           0
     14852 MEMB     119      PMPE     H3Y      HAL2     0.900000E-01   1.00800           0
     14853 MEMB     119      PMPE     C34      CTL2    -0.180000       12.0110           0
     14854 MEMB     119      PMPE     H4X      HAL2     0.900000E-01   1.00800           0
     14855 MEMB     119      PMPE     H4Y      HAL2     0.900000E-01   1.00800           0
     14856 MEMB     119      PMPE     C35      CTL2    -0.180000       12.0110           0
     14857 MEMB     119      PMPE     H5X      HAL2     0.900000E-01   1.00800           0
     14858 MEMB     119      PMPE     H5Y      HAL2     0.900000E-01   1.00800           0
     14859 MEMB     119      PMPE     C36      CTL2    -0.180000       12.0110           0
     14860 MEMB     119      PMPE     H6X      HAL2     0.900000E-01   1.00800           0
     14861 MEMB     119      PMPE     H6Y      HAL2     0.900000E-01   1.00800           0
     14862 MEMB     119      PMPE     C37      CTL2    -0.180000       12.0110           0
     14863 MEMB     119      PMPE     H7X      HAL2     0.900000E-01   1.00800           0
     14864 MEMB     119      PMPE     H7Y      HAL2     0.900000E-01   1.00800           0
     14865 MEMB     119      PMPE     C38      CTL2    -0.180000       12.0110           0
     14866 MEMB     119      PMPE     H8X      HAL2     0.900000E-01   1.00800           0
     14867 MEMB     119      PMPE     H8Y      HAL2     0.900000E-01   1.00800           0
     14868 MEMB     119      PMPE     C39      CTL2    -0.180000       12.0110           0
     14869 MEMB     119      PMPE     H9X      HAL2     0.900000E-01   1.00800           0
     14870 MEMB     119      PMPE     H9Y      HAL2     0.900000E-01   1.00800           0
     14871 MEMB     119      PMPE     C310     CTL2    -0.180000       12.0110           0
     14872 MEMB     119      PMPE     H10X     HAL2     0.900000E-01   1.00800           0
     14873 MEMB     119      PMPE     H10Y     HAL2     0.900000E-01   1.00800           0
     14874 MEMB     119      PMPE     C311     CTL2    -0.180000       12.0110           0
     14875 MEMB     119      PMPE     H11X     HAL2     0.900000E-01   1.00800           0
     14876 MEMB     119      PMPE     H11Y     HAL2     0.900000E-01   1.00800           0
     14877 MEMB     119      PMPE     C312     CTL2    -0.180000       12.0110           0
     14878 MEMB     119      PMPE     H12X     HAL2     0.900000E-01   1.00800           0
     14879 MEMB     119      PMPE     H12Y     HAL2     0.900000E-01   1.00800           0
     14880 MEMB     119      PMPE     C313     CTL2    -0.180000       12.0110           0
     14881 MEMB     119      PMPE     H13X     HAL2     0.900000E-01   1.00800           0
     14882 MEMB     119      PMPE     H13Y     HAL2     0.900000E-01   1.00800           0
     14883 MEMB     119      PMPE     C314     CTL2    -0.180000       12.0110           0
     14884 MEMB     119      PMPE     H14X     HAL2     0.900000E-01   1.00800           0
     14885 MEMB     119      PMPE     H14Y     HAL2     0.900000E-01   1.00800           0
     14886 MEMB     119      PMPE     C315     CTL2    -0.180000       12.0110           0
     14887 MEMB     119      PMPE     H15X     HAL2     0.900000E-01   1.00800           0
     14888 MEMB     119      PMPE     H15Y     HAL2     0.900000E-01   1.00800           0
     14889 MEMB     119      PMPE     C316     CTL3    -0.270000       12.0110           0
     14890 MEMB     119      PMPE     H16X     HAL3     0.900000E-01   1.00800           0
     14891 MEMB     119      PMPE     H16Y     HAL3     0.900000E-01   1.00800           0
     14892 MEMB     119      PMPE     H16Z     HAL3     0.900000E-01   1.00800           0
     14893 MEMB     120      PMPG     C13      CTL2     0.500000E-01   12.0110           0
     14894 MEMB     120      PMPG     H13A     HAL2     0.900000E-01   1.00800           0
     14895 MEMB     120      PMPG     H13B     HAL2     0.900000E-01   1.00800           0
     14896 MEMB     120      PMPG     OC3      OHL     -0.660000       15.9994           0
     14897 MEMB     120      PMPG     HO3      HOL      0.430000       1.00800           0
     14898 MEMB     120      PMPG     C12      CTL1     0.140000       12.0110           0
     14899 MEMB     120      PMPG     H12A     HAL1     0.900000E-01   1.00800           0
     14900 MEMB     120      PMPG     OC2      OHL     -0.660000       15.9994           0
     14901 MEMB     120      PMPG     HO2      HOL      0.430000       1.00800           0
     14902 MEMB     120      PMPG     C11      CTL2    -0.800000E-01   12.0110           0
     14903 MEMB     120      PMPG     H11A     HAL2     0.900000E-01   1.00800           0
     14904 MEMB     120      PMPG     H11B     HAL2     0.900000E-01   1.00800           0
     14905 MEMB     120      PMPG     P        PL        1.50000       30.9740           0
     14906 MEMB     120      PMPG     O13      O2L     -0.780000       15.9994           0
     14907 MEMB     120      PMPG     O14      O2L     -0.780000       15.9994           0
     14908 MEMB     120      PMPG     O11      OSLP    -0.570000       15.9994           0
     14909 MEMB     120      PMPG     O12      OSLP    -0.570000       15.9994           0
     14910 MEMB     120      PMPG     C1       CTL2    -0.800000E-01   12.0110           0
     14911 MEMB     120      PMPG     HA       HAL2     0.900000E-01   1.00800           0
     14912 MEMB     120      PMPG     HB       HAL2     0.900000E-01   1.00800           0
     14913 MEMB     120      PMPG     C2       CTL1     0.170000       12.0110           0
     14914 MEMB     120      PMPG     HS       HAL1     0.900000E-01   1.00800           0
     14915 MEMB     120      PMPG     O21      OSL     -0.490000       15.9994           0
     14916 MEMB     120      PMPG     C21      CL       0.900000       12.0110           0
     14917 MEMB     120      PMPG     O22      OBL     -0.630000       15.9994           0
     14918 MEMB     120      PMPG     C22      CTL2    -0.220000       12.0110           0
     14919 MEMB     120      PMPG     H2R      HAL2     0.900000E-01   1.00800           0
     14920 MEMB     120      PMPG     H2S      HAL2     0.900000E-01   1.00800           0
     14921 MEMB     120      PMPG     C3       CTL2     0.800000E-01   12.0110           0
     14922 MEMB     120      PMPG     HX       HAL2     0.900000E-01   1.00800           0
     14923 MEMB     120      PMPG     HY       HAL2     0.900000E-01   1.00800           0
     14924 MEMB     120      PMPG     O31      OSL     -0.490000       15.9994           0
     14925 MEMB     120      PMPG     C31      CL       0.900000       12.0110           0
     14926 MEMB     120      PMPG     O32      OBL     -0.630000       15.9994           0
     14927 MEMB     120      PMPG     C32      CTL2    -0.220000       12.0110           0
     14928 MEMB     120      PMPG     H2X      HAL2     0.900000E-01   1.00800           0
     14929 MEMB     120      PMPG     H2Y      HAL2     0.900000E-01   1.00800           0
     14930 MEMB     120      PMPG     C23      CTL2    -0.180000       12.0110           0
     14931 MEMB     120      PMPG     H3R      HAL2     0.900000E-01   1.00800           0
     14932 MEMB     120      PMPG     H3S      HAL2     0.900000E-01   1.00800           0
     14933 MEMB     120      PMPG     C24      CTL2    -0.180000       12.0110           0
     14934 MEMB     120      PMPG     H4R      HAL2     0.900000E-01   1.00800           0
     14935 MEMB     120      PMPG     H4S      HAL2     0.900000E-01   1.00800           0
     14936 MEMB     120      PMPG     C25      CTL2    -0.180000       12.0110           0
     14937 MEMB     120      PMPG     H5R      HAL2     0.900000E-01   1.00800           0
     14938 MEMB     120      PMPG     H5S      HAL2     0.900000E-01   1.00800           0
     14939 MEMB     120      PMPG     C26      CTL2    -0.180000       12.0110           0
     14940 MEMB     120      PMPG     H6R      HAL2     0.900000E-01   1.00800           0
     14941 MEMB     120      PMPG     H6S      HAL2     0.900000E-01   1.00800           0
     14942 MEMB     120      PMPG     C27      CTL2    -0.180000       12.0110           0
     14943 MEMB     120      PMPG     H7R      HAL2     0.900000E-01   1.00800           0
     14944 MEMB     120      PMPG     H7S      HAL2     0.900000E-01   1.00800           0
     14945 MEMB     120      PMPG     C28      CTL2    -0.180000       12.0110           0
     14946 MEMB     120      PMPG     H8R      HAL2     0.900000E-01   1.00800           0
     14947 MEMB     120      PMPG     H8S      HAL2     0.900000E-01   1.00800           0
     14948 MEMB     120      PMPG     C29      CG3RC1  -0.900000E-01   12.0110           0
     14949 MEMB     120      PMPG     H9R      HGA1     0.900000E-01   1.00800           0
     14950 MEMB     120      PMPG     C217     CG3C31  -0.180000       12.0110           0
     14951 MEMB     120      PMPG     H17R     HGA2     0.900000E-01   1.00800           0
     14952 MEMB     120      PMPG     H17S     HGA2     0.900000E-01   1.00800           0
     14953 MEMB     120      PMPG     C210     CG3RC1  -0.900000E-01   12.0110           0
     14954 MEMB     120      PMPG     H10R     HGA1     0.900000E-01   1.00800           0
     14955 MEMB     120      PMPG     C211     CTL2    -0.180000       12.0110           0
     14956 MEMB     120      PMPG     H11R     HAL2     0.900000E-01   1.00800           0
     14957 MEMB     120      PMPG     H11S     HAL2     0.900000E-01   1.00800           0
     14958 MEMB     120      PMPG     C212     CTL2    -0.180000       12.0110           0
     14959 MEMB     120      PMPG     H12R     HAL2     0.900000E-01   1.00800           0
     14960 MEMB     120      PMPG     H12S     HAL2     0.900000E-01   1.00800           0
     14961 MEMB     120      PMPG     C213     CTL2    -0.180000       12.0110           0
     14962 MEMB     120      PMPG     H13R     HAL2     0.900000E-01   1.00800           0
     14963 MEMB     120      PMPG     H13S     HAL2     0.900000E-01   1.00800           0
     14964 MEMB     120      PMPG     C214     CTL2    -0.180000       12.0110           0
     14965 MEMB     120      PMPG     H14R     HAL2     0.900000E-01   1.00800           0
     14966 MEMB     120      PMPG     H14S     HAL2     0.900000E-01   1.00800           0
     14967 MEMB     120      PMPG     C215     CTL2    -0.180000       12.0110           0
     14968 MEMB     120      PMPG     H15R     HAL2     0.900000E-01   1.00800           0
     14969 MEMB     120      PMPG     H15S     HAL2     0.900000E-01   1.00800           0
     14970 MEMB     120      PMPG     C216     CTL3    -0.270000       12.0110           0
     14971 MEMB     120      PMPG     H16R     HAL3     0.900000E-01   1.00800           0
     14972 MEMB     120      PMPG     H16S     HAL3     0.900000E-01   1.00800           0
     14973 MEMB     120      PMPG     H16T     HAL3     0.900000E-01   1.00800           0
     14974 MEMB     120      PMPG     C33      CTL2    -0.180000       12.0110           0
     14975 MEMB     120      PMPG     H3X      HAL2     0.900000E-01   1.00800           0
     14976 MEMB     120      PMPG     H3Y      HAL2     0.900000E-01   1.00800           0
     14977 MEMB     120      PMPG     C34      CTL2    -0.180000       12.0110           0
     14978 MEMB     120      PMPG     H4X      HAL2     0.900000E-01   1.00800           0
     14979 MEMB     120      PMPG     H4Y      HAL2     0.900000E-01   1.00800           0
     14980 MEMB     120      PMPG     C35      CTL2    -0.180000       12.0110           0
     14981 MEMB     120      PMPG     H5X      HAL2     0.900000E-01   1.00800           0
     14982 MEMB     120      PMPG     H5Y      HAL2     0.900000E-01   1.00800           0
     14983 MEMB     120      PMPG     C36      CTL2    -0.180000       12.0110           0
     14984 MEMB     120      PMPG     H6X      HAL2     0.900000E-01   1.00800           0
     14985 MEMB     120      PMPG     H6Y      HAL2     0.900000E-01   1.00800           0
     14986 MEMB     120      PMPG     C37      CTL2    -0.180000       12.0110           0
     14987 MEMB     120      PMPG     H7X      HAL2     0.900000E-01   1.00800           0
     14988 MEMB     120      PMPG     H7Y      HAL2     0.900000E-01   1.00800           0
     14989 MEMB     120      PMPG     C38      CTL2    -0.180000       12.0110           0
     14990 MEMB     120      PMPG     H8X      HAL2     0.900000E-01   1.00800           0
     14991 MEMB     120      PMPG     H8Y      HAL2     0.900000E-01   1.00800           0
     14992 MEMB     120      PMPG     C39      CTL2    -0.180000       12.0110           0
     14993 MEMB     120      PMPG     H9X      HAL2     0.900000E-01   1.00800           0
     14994 MEMB     120      PMPG     H9Y      HAL2     0.900000E-01   1.00800           0
     14995 MEMB     120      PMPG     C310     CTL2    -0.180000       12.0110           0
     14996 MEMB     120      PMPG     H10X     HAL2     0.900000E-01   1.00800           0
     14997 MEMB     120      PMPG     H10Y     HAL2     0.900000E-01   1.00800           0
     14998 MEMB     120      PMPG     C311     CTL2    -0.180000       12.0110           0
     14999 MEMB     120      PMPG     H11X     HAL2     0.900000E-01   1.00800           0
     15000 MEMB     120      PMPG     H11Y     HAL2     0.900000E-01   1.00800           0
     15001 MEMB     120      PMPG     C312     CTL2    -0.180000       12.0110           0
     15002 MEMB     120      PMPG     H12X     HAL2     0.900000E-01   1.00800           0
     15003 MEMB     120      PMPG     H12Y     HAL2     0.900000E-01   1.00800           0
     15004 MEMB     120      PMPG     C313     CTL2    -0.180000       12.0110           0
     15005 MEMB     120      PMPG     H13X     HAL2     0.900000E-01   1.00800           0
     15006 MEMB     120      PMPG     H13Y     HAL2     0.900000E-01   1.00800           0
     15007 MEMB     120      PMPG     C314     CTL2    -0.180000       12.0110           0
     15008 MEMB     120      PMPG     H14X     HAL2     0.900000E-01   1.00800           0
     15009 MEMB     120      PMPG     H14Y     HAL2     0.900000E-01   1.00800           0
     15010 MEMB     120      PMPG     C315     CTL2    -0.180000       12.0110           0
     15011 MEMB     120      PMPG     H15X     HAL2     0.900000E-01   1.00800           0
     15012 MEMB     120      PMPG     H15Y     HAL2     0.900000E-01   1.00800           0
     15013 MEMB     120      PMPG     C316     CTL3    -0.270000       12.0110           0
     15014 MEMB     120      PMPG     H16X     HAL3     0.900000E-01   1.00800           0
     15015 MEMB     120      PMPG     H16Y     HAL3     0.900000E-01   1.00800           0
     15016 MEMB     120      PMPG     H16Z     HAL3     0.900000E-01   1.00800           0
     15017 MEMB     121      PMPE     N        NH3L    -0.300000       14.0070           0
     15018 MEMB     121      PMPE     HN1      HCL      0.330000       1.00800           0
     15019 MEMB     121      PMPE     HN2      HCL      0.330000       1.00800           0
     15020 MEMB     121      PMPE     HN3      HCL      0.330000       1.00800           0
     15021 MEMB     121      PMPE     C12      CTL2     0.130000       12.0110           0
     15022 MEMB     121      PMPE     H12A     HAL2     0.900000E-01   1.00800           0
     15023 MEMB     121      PMPE     H12B     HAL2     0.900000E-01   1.00800           0
     15024 MEMB     121      PMPE     C11      CTL2    -0.800000E-01   12.0110           0
     15025 MEMB     121      PMPE     H11A     HAL2     0.900000E-01   1.00800           0
     15026 MEMB     121      PMPE     H11B     HAL2     0.900000E-01   1.00800           0
     15027 MEMB     121      PMPE     P        PL        1.50000       30.9740           0
     15028 MEMB     121      PMPE     O13      O2L     -0.780000       15.9994           0
     15029 MEMB     121      PMPE     O14      O2L     -0.780000       15.9994           0
     15030 MEMB     121      PMPE     O11      OSLP    -0.570000       15.9994           0
     15031 MEMB     121      PMPE     O12      OSLP    -0.570000       15.9994           0
     15032 MEMB     121      PMPE     C1       CTL2    -0.800000E-01   12.0110           0
     15033 MEMB     121      PMPE     HA       HAL2     0.900000E-01   1.00800           0
     15034 MEMB     121      PMPE     HB       HAL2     0.900000E-01   1.00800           0
     15035 MEMB     121      PMPE     C2       CTL1     0.170000       12.0110           0
     15036 MEMB     121      PMPE     HS       HAL1     0.900000E-01   1.00800           0
     15037 MEMB     121      PMPE     O21      OSL     -0.490000       15.9994           0
     15038 MEMB     121      PMPE     C21      CL       0.900000       12.0110           0
     15039 MEMB     121      PMPE     O22      OBL     -0.630000       15.9994           0
     15040 MEMB     121      PMPE     C22      CTL2    -0.220000       12.0110           0
     15041 MEMB     121      PMPE     H2R      HAL2     0.900000E-01   1.00800           0
     15042 MEMB     121      PMPE     H2S      HAL2     0.900000E-01   1.00800           0
     15043 MEMB     121      PMPE     C3       CTL2     0.800000E-01   12.0110           0
     15044 MEMB     121      PMPE     HX       HAL2     0.900000E-01   1.00800           0
     15045 MEMB     121      PMPE     HY       HAL2     0.900000E-01   1.00800           0
     15046 MEMB     121      PMPE     O31      OSL     -0.490000       15.9994           0
     15047 MEMB     121      PMPE     C31      CL       0.900000       12.0110           0
     15048 MEMB     121      PMPE     O32      OBL     -0.630000       15.9994           0
     15049 MEMB     121      PMPE     C32      CTL2    -0.220000       12.0110           0
     15050 MEMB     121      PMPE     H2X      HAL2     0.900000E-01   1.00800           0
     15051 MEMB     121      PMPE     H2Y      HAL2     0.900000E-01   1.00800           0
     15052 MEMB     121      PMPE     C23      CTL2    -0.180000       12.0110           0
     15053 MEMB     121      PMPE     H3R      HAL2     0.900000E-01   1.00800           0
     15054 MEMB     121      PMPE     H3S      HAL2     0.900000E-01   1.00800           0
     15055 MEMB     121      PMPE     C24      CTL2    -0.180000       12.0110           0
     15056 MEMB     121      PMPE     H4R      HAL2     0.900000E-01   1.00800           0
     15057 MEMB     121      PMPE     H4S      HAL2     0.900000E-01   1.00800           0
     15058 MEMB     121      PMPE     C25      CTL2    -0.180000       12.0110           0
     15059 MEMB     121      PMPE     H5R      HAL2     0.900000E-01   1.00800           0
     15060 MEMB     121      PMPE     H5S      HAL2     0.900000E-01   1.00800           0
     15061 MEMB     121      PMPE     C26      CTL2    -0.180000       12.0110           0
     15062 MEMB     121      PMPE     H6R      HAL2     0.900000E-01   1.00800           0
     15063 MEMB     121      PMPE     H6S      HAL2     0.900000E-01   1.00800           0
     15064 MEMB     121      PMPE     C27      CTL2    -0.180000       12.0110           0
     15065 MEMB     121      PMPE     H7R      HAL2     0.900000E-01   1.00800           0
     15066 MEMB     121      PMPE     H7S      HAL2     0.900000E-01   1.00800           0
     15067 MEMB     121      PMPE     C28      CTL2    -0.180000       12.0110           0
     15068 MEMB     121      PMPE     H8R      HAL2     0.900000E-01   1.00800           0
     15069 MEMB     121      PMPE     H8S      HAL2     0.900000E-01   1.00800           0
     15070 MEMB     121      PMPE     C29      CG3RC1  -0.900000E-01   12.0110           0
     15071 MEMB     121      PMPE     H9R      HGA1     0.900000E-01   1.00800           0
     15072 MEMB     121      PMPE     C217     CG3C31  -0.180000       12.0110           0
     15073 MEMB     121      PMPE     H17R     HGA2     0.900000E-01   1.00800           0
     15074 MEMB     121      PMPE     H17S     HGA2     0.900000E-01   1.00800           0
     15075 MEMB     121      PMPE     C210     CG3RC1  -0.900000E-01   12.0110           0
     15076 MEMB     121      PMPE     H10R     HGA1     0.900000E-01   1.00800           0
     15077 MEMB     121      PMPE     C211     CTL2    -0.180000       12.0110           0
     15078 MEMB     121      PMPE     H11R     HAL2     0.900000E-01   1.00800           0
     15079 MEMB     121      PMPE     H11S     HAL2     0.900000E-01   1.00800           0
     15080 MEMB     121      PMPE     C212     CTL2    -0.180000       12.0110           0
     15081 MEMB     121      PMPE     H12R     HAL2     0.900000E-01   1.00800           0
     15082 MEMB     121      PMPE     H12S     HAL2     0.900000E-01   1.00800           0
     15083 MEMB     121      PMPE     C213     CTL2    -0.180000       12.0110           0
     15084 MEMB     121      PMPE     H13R     HAL2     0.900000E-01   1.00800           0
     15085 MEMB     121      PMPE     H13S     HAL2     0.900000E-01   1.00800           0
     15086 MEMB     121      PMPE     C214     CTL2    -0.180000       12.0110           0
     15087 MEMB     121      PMPE     H14R     HAL2     0.900000E-01   1.00800           0
     15088 MEMB     121      PMPE     H14S     HAL2     0.900000E-01   1.00800           0
     15089 MEMB     121      PMPE     C215     CTL2    -0.180000       12.0110           0
     15090 MEMB     121      PMPE     H15R     HAL2     0.900000E-01   1.00800           0
     15091 MEMB     121      PMPE     H15S     HAL2     0.900000E-01   1.00800           0
     15092 MEMB     121      PMPE     C216     CTL3    -0.270000       12.0110           0
     15093 MEMB     121      PMPE     H16R     HAL3     0.900000E-01   1.00800           0
     15094 MEMB     121      PMPE     H16S     HAL3     0.900000E-01   1.00800           0
     15095 MEMB     121      PMPE     H16T     HAL3     0.900000E-01   1.00800           0
     15096 MEMB     121      PMPE     C33      CTL2    -0.180000       12.0110           0
     15097 MEMB     121      PMPE     H3X      HAL2     0.900000E-01   1.00800           0
     15098 MEMB     121      PMPE     H3Y      HAL2     0.900000E-01   1.00800           0
     15099 MEMB     121      PMPE     C34      CTL2    -0.180000       12.0110           0
     15100 MEMB     121      PMPE     H4X      HAL2     0.900000E-01   1.00800           0
     15101 MEMB     121      PMPE     H4Y      HAL2     0.900000E-01   1.00800           0
     15102 MEMB     121      PMPE     C35      CTL2    -0.180000       12.0110           0
     15103 MEMB     121      PMPE     H5X      HAL2     0.900000E-01   1.00800           0
     15104 MEMB     121      PMPE     H5Y      HAL2     0.900000E-01   1.00800           0
     15105 MEMB     121      PMPE     C36      CTL2    -0.180000       12.0110           0
     15106 MEMB     121      PMPE     H6X      HAL2     0.900000E-01   1.00800           0
     15107 MEMB     121      PMPE     H6Y      HAL2     0.900000E-01   1.00800           0
     15108 MEMB     121      PMPE     C37      CTL2    -0.180000       12.0110           0
     15109 MEMB     121      PMPE     H7X      HAL2     0.900000E-01   1.00800           0
     15110 MEMB     121      PMPE     H7Y      HAL2     0.900000E-01   1.00800           0
     15111 MEMB     121      PMPE     C38      CTL2    -0.180000       12.0110           0
     15112 MEMB     121      PMPE     H8X      HAL2     0.900000E-01   1.00800           0
     15113 MEMB     121      PMPE     H8Y      HAL2     0.900000E-01   1.00800           0
     15114 MEMB     121      PMPE     C39      CTL2    -0.180000       12.0110           0
     15115 MEMB     121      PMPE     H9X      HAL2     0.900000E-01   1.00800           0
     15116 MEMB     121      PMPE     H9Y      HAL2     0.900000E-01   1.00800           0
     15117 MEMB     121      PMPE     C310     CTL2    -0.180000       12.0110           0
     15118 MEMB     121      PMPE     H10X     HAL2     0.900000E-01   1.00800           0
     15119 MEMB     121      PMPE     H10Y     HAL2     0.900000E-01   1.00800           0
     15120 MEMB     121      PMPE     C311     CTL2    -0.180000       12.0110           0
     15121 MEMB     121      PMPE     H11X     HAL2     0.900000E-01   1.00800           0
     15122 MEMB     121      PMPE     H11Y     HAL2     0.900000E-01   1.00800           0
     15123 MEMB     121      PMPE     C312     CTL2    -0.180000       12.0110           0
     15124 MEMB     121      PMPE     H12X     HAL2     0.900000E-01   1.00800           0
     15125 MEMB     121      PMPE     H12Y     HAL2     0.900000E-01   1.00800           0
     15126 MEMB     121      PMPE     C313     CTL2    -0.180000       12.0110           0
     15127 MEMB     121      PMPE     H13X     HAL2     0.900000E-01   1.00800           0
     15128 MEMB     121      PMPE     H13Y     HAL2     0.900000E-01   1.00800           0
     15129 MEMB     121      PMPE     C314     CTL2    -0.180000       12.0110           0
     15130 MEMB     121      PMPE     H14X     HAL2     0.900000E-01   1.00800           0
     15131 MEMB     121      PMPE     H14Y     HAL2     0.900000E-01   1.00800           0
     15132 MEMB     121      PMPE     C315     CTL2    -0.180000       12.0110           0
     15133 MEMB     121      PMPE     H15X     HAL2     0.900000E-01   1.00800           0
     15134 MEMB     121      PMPE     H15Y     HAL2     0.900000E-01   1.00800           0
     15135 MEMB     121      PMPE     C316     CTL3    -0.270000       12.0110           0
     15136 MEMB     121      PMPE     H16X     HAL3     0.900000E-01   1.00800           0
     15137 MEMB     121      PMPE     H16Y     HAL3     0.900000E-01   1.00800           0
     15138 MEMB     121      PMPE     H16Z     HAL3     0.900000E-01   1.00800           0
     15139 MEMB     122      OYPE     N        NH3L    -0.300000       14.0070           0
     15140 MEMB     122      OYPE     HN1      HCL      0.330000       1.00800           0
     15141 MEMB     122      OYPE     HN2      HCL      0.330000       1.00800           0
     15142 MEMB     122      OYPE     HN3      HCL      0.330000       1.00800           0
     15143 MEMB     122      OYPE     C12      CTL2     0.130000       12.0110           0
     15144 MEMB     122      OYPE     H12A     HAL2     0.900000E-01   1.00800           0
     15145 MEMB     122      OYPE     H12B     HAL2     0.900000E-01   1.00800           0
     15146 MEMB     122      OYPE     C11      CTL2    -0.800000E-01   12.0110           0
     15147 MEMB     122      OYPE     H11A     HAL2     0.900000E-01   1.00800           0
     15148 MEMB     122      OYPE     H11B     HAL2     0.900000E-01   1.00800           0
     15149 MEMB     122      OYPE     P        PL        1.50000       30.9740           0
     15150 MEMB     122      OYPE     O13      O2L     -0.780000       15.9994           0
     15151 MEMB     122      OYPE     O14      O2L     -0.780000       15.9994           0
     15152 MEMB     122      OYPE     O11      OSLP    -0.570000       15.9994           0
     15153 MEMB     122      OYPE     O12      OSLP    -0.570000       15.9994           0
     15154 MEMB     122      OYPE     C1       CTL2    -0.800000E-01   12.0110           0
     15155 MEMB     122      OYPE     HA       HAL2     0.900000E-01   1.00800           0
     15156 MEMB     122      OYPE     HB       HAL2     0.900000E-01   1.00800           0
     15157 MEMB     122      OYPE     C2       CTL1     0.170000       12.0110           0
     15158 MEMB     122      OYPE     HS       HAL1     0.900000E-01   1.00800           0
     15159 MEMB     122      OYPE     O21      OSL     -0.490000       15.9994           0
     15160 MEMB     122      OYPE     C21      CL       0.900000       12.0110           0
     15161 MEMB     122      OYPE     O22      OBL     -0.630000       15.9994           0
     15162 MEMB     122      OYPE     C22      CTL2    -0.220000       12.0110           0
     15163 MEMB     122      OYPE     H2R      HAL2     0.900000E-01   1.00800           0
     15164 MEMB     122      OYPE     H2S      HAL2     0.900000E-01   1.00800           0
     15165 MEMB     122      OYPE     C3       CTL2     0.800000E-01   12.0110           0
     15166 MEMB     122      OYPE     HX       HAL2     0.900000E-01   1.00800           0
     15167 MEMB     122      OYPE     HY       HAL2     0.900000E-01   1.00800           0
     15168 MEMB     122      OYPE     O31      OSL     -0.490000       15.9994           0
     15169 MEMB     122      OYPE     C31      CL       0.900000       12.0110           0
     15170 MEMB     122      OYPE     O32      OBL     -0.630000       15.9994           0
     15171 MEMB     122      OYPE     C32      CTL2    -0.220000       12.0110           0
     15172 MEMB     122      OYPE     H2X      HAL2     0.900000E-01   1.00800           0
     15173 MEMB     122      OYPE     H2Y      HAL2     0.900000E-01   1.00800           0
     15174 MEMB     122      OYPE     C23      CTL2    -0.180000       12.0110           0
     15175 MEMB     122      OYPE     H3R      HAL2     0.900000E-01   1.00800           0
     15176 MEMB     122      OYPE     H3S      HAL2     0.900000E-01   1.00800           0
     15177 MEMB     122      OYPE     C24      CTL2    -0.180000       12.0110           0
     15178 MEMB     122      OYPE     H4R      HAL2     0.900000E-01   1.00800           0
     15179 MEMB     122      OYPE     H4S      HAL2     0.900000E-01   1.00800           0
     15180 MEMB     122      OYPE     C25      CTL2    -0.180000       12.0110           0
     15181 MEMB     122      OYPE     H5R      HAL2     0.900000E-01   1.00800           0
     15182 MEMB     122      OYPE     H5S      HAL2     0.900000E-01   1.00800           0
     15183 MEMB     122      OYPE     C26      CTL2    -0.180000       12.0110           0
     15184 MEMB     122      OYPE     H6R      HAL2     0.900000E-01   1.00800           0
     15185 MEMB     122      OYPE     H6S      HAL2     0.900000E-01   1.00800           0
     15186 MEMB     122      OYPE     C27      CTL2    -0.180000       12.0110           0
     15187 MEMB     122      OYPE     H7R      HAL2     0.900000E-01   1.00800           0
     15188 MEMB     122      OYPE     H7S      HAL2     0.900000E-01   1.00800           0
     15189 MEMB     122      OYPE     C28      CTL2    -0.180000       12.0110           0
     15190 MEMB     122      OYPE     H8R      HAL2     0.900000E-01   1.00800           0
     15191 MEMB     122      OYPE     H8S      HAL2     0.900000E-01   1.00800           0
     15192 MEMB     122      OYPE     C29      CEL1    -0.150000       12.0110           0
     15193 MEMB     122      OYPE     H9R      HEL1     0.150000       1.00800           0
     15194 MEMB     122      OYPE     C210     CEL1    -0.150000       12.0110           0
     15195 MEMB     122      OYPE     H10R     HEL1     0.150000       1.00800           0
     15196 MEMB     122      OYPE     C211     CTL2    -0.180000       12.0110           0
     15197 MEMB     122      OYPE     H11R     HAL2     0.900000E-01   1.00800           0
     15198 MEMB     122      OYPE     H11S     HAL2     0.900000E-01   1.00800           0
     15199 MEMB     122      OYPE     C212     CTL2    -0.180000       12.0110           0
     15200 MEMB     122      OYPE     H12R     HAL2     0.900000E-01   1.00800           0
     15201 MEMB     122      OYPE     H12S     HAL2     0.900000E-01   1.00800           0
     15202 MEMB     122      OYPE     C213     CTL2    -0.180000       12.0110           0
     15203 MEMB     122      OYPE     H13R     HAL2     0.900000E-01   1.00800           0
     15204 MEMB     122      OYPE     H13S     HAL2     0.900000E-01   1.00800           0
     15205 MEMB     122      OYPE     C214     CTL2    -0.180000       12.0110           0
     15206 MEMB     122      OYPE     H14R     HAL2     0.900000E-01   1.00800           0
     15207 MEMB     122      OYPE     H14S     HAL2     0.900000E-01   1.00800           0
     15208 MEMB     122      OYPE     C215     CTL2    -0.180000       12.0110           0
     15209 MEMB     122      OYPE     H15R     HAL2     0.900000E-01   1.00800           0
     15210 MEMB     122      OYPE     H15S     HAL2     0.900000E-01   1.00800           0
     15211 MEMB     122      OYPE     C216     CTL3    -0.270000       12.0110           0
     15212 MEMB     122      OYPE     H16R     HAL3     0.900000E-01   1.00800           0
     15213 MEMB     122      OYPE     H16S     HAL3     0.900000E-01   1.00800           0
     15214 MEMB     122      OYPE     H16T     HAL3     0.900000E-01   1.00800           0
     15215 MEMB     122      OYPE     C33      CTL2    -0.180000       12.0110           0
     15216 MEMB     122      OYPE     H3X      HAL2     0.900000E-01   1.00800           0
     15217 MEMB     122      OYPE     H3Y      HAL2     0.900000E-01   1.00800           0
     15218 MEMB     122      OYPE     C34      CTL2    -0.180000       12.0110           0
     15219 MEMB     122      OYPE     H4X      HAL2     0.900000E-01   1.00800           0
     15220 MEMB     122      OYPE     H4Y      HAL2     0.900000E-01   1.00800           0
     15221 MEMB     122      OYPE     C35      CTL2    -0.180000       12.0110           0
     15222 MEMB     122      OYPE     H5X      HAL2     0.900000E-01   1.00800           0
     15223 MEMB     122      OYPE     H5Y      HAL2     0.900000E-01   1.00800           0
     15224 MEMB     122      OYPE     C36      CTL2    -0.180000       12.0110           0
     15225 MEMB     122      OYPE     H6X      HAL2     0.900000E-01   1.00800           0
     15226 MEMB     122      OYPE     H6Y      HAL2     0.900000E-01   1.00800           0
     15227 MEMB     122      OYPE     C37      CTL2    -0.180000       12.0110           0
     15228 MEMB     122      OYPE     H7X      HAL2     0.900000E-01   1.00800           0
     15229 MEMB     122      OYPE     H7Y      HAL2     0.900000E-01   1.00800           0
     15230 MEMB     122      OYPE     C38      CTL2    -0.180000       12.0110           0
     15231 MEMB     122      OYPE     H8X      HAL2     0.900000E-01   1.00800           0
     15232 MEMB     122      OYPE     H8Y      HAL2     0.900000E-01   1.00800           0
     15233 MEMB     122      OYPE     C39      CEL1    -0.150000       12.0110           0
     15234 MEMB     122      OYPE     H9X      HEL1     0.150000       1.00800           0
     15235 MEMB     122      OYPE     C310     CEL1    -0.150000       12.0110           0
     15236 MEMB     122      OYPE     H10X     HEL1     0.150000       1.00800           0
     15237 MEMB     122      OYPE     C311     CTL2    -0.180000       12.0110           0
     15238 MEMB     122      OYPE     H11X     HAL2     0.900000E-01   1.00800           0
     15239 MEMB     122      OYPE     H11Y     HAL2     0.900000E-01   1.00800           0
     15240 MEMB     122      OYPE     C312     CTL2    -0.180000       12.0110           0
     15241 MEMB     122      OYPE     H12X     HAL2     0.900000E-01   1.00800           0
     15242 MEMB     122      OYPE     H12Y     HAL2     0.900000E-01   1.00800           0
     15243 MEMB     122      OYPE     C313     CTL2    -0.180000       12.0110           0
     15244 MEMB     122      OYPE     H13X     HAL2     0.900000E-01   1.00800           0
     15245 MEMB     122      OYPE     H13Y     HAL2     0.900000E-01   1.00800           0
     15246 MEMB     122      OYPE     C314     CTL2    -0.180000       12.0110           0
     15247 MEMB     122      OYPE     H14X     HAL2     0.900000E-01   1.00800           0
     15248 MEMB     122      OYPE     H14Y     HAL2     0.900000E-01   1.00800           0
     15249 MEMB     122      OYPE     C315     CTL2    -0.180000       12.0110           0
     15250 MEMB     122      OYPE     H15X     HAL2     0.900000E-01   1.00800           0
     15251 MEMB     122      OYPE     H15Y     HAL2     0.900000E-01   1.00800           0
     15252 MEMB     122      OYPE     C316     CTL2    -0.180000       12.0110           0
     15253 MEMB     122      OYPE     H16X     HAL2     0.900000E-01   1.00800           0
     15254 MEMB     122      OYPE     H16Y     HAL2     0.900000E-01   1.00800           0
     15255 MEMB     122      OYPE     C317     CTL2    -0.180000       12.0110           0
     15256 MEMB     122      OYPE     H17X     HAL2     0.900000E-01   1.00800           0
     15257 MEMB     122      OYPE     H17Y     HAL2     0.900000E-01   1.00800           0
     15258 MEMB     122      OYPE     C318     CTL3    -0.270000       12.0110           0
     15259 MEMB     122      OYPE     H18X     HAL3     0.900000E-01   1.00800           0
     15260 MEMB     122      OYPE     H18Y     HAL3     0.900000E-01   1.00800           0
     15261 MEMB     122      OYPE     H18Z     HAL3     0.900000E-01   1.00800           0
     15262 MEMB     123      POPE     N        NH3L    -0.300000       14.0070           0
     15263 MEMB     123      POPE     HN1      HCL      0.330000       1.00800           0
     15264 MEMB     123      POPE     HN2      HCL      0.330000       1.00800           0
     15265 MEMB     123      POPE     HN3      HCL      0.330000       1.00800           0
     15266 MEMB     123      POPE     C12      CTL2     0.130000       12.0110           0
     15267 MEMB     123      POPE     H12A     HAL2     0.900000E-01   1.00800           0
     15268 MEMB     123      POPE     H12B     HAL2     0.900000E-01   1.00800           0
     15269 MEMB     123      POPE     C11      CTL2    -0.800000E-01   12.0110           0
     15270 MEMB     123      POPE     H11A     HAL2     0.900000E-01   1.00800           0
     15271 MEMB     123      POPE     H11B     HAL2     0.900000E-01   1.00800           0
     15272 MEMB     123      POPE     P        PL        1.50000       30.9740           0
     15273 MEMB     123      POPE     O13      O2L     -0.780000       15.9994           0
     15274 MEMB     123      POPE     O14      O2L     -0.780000       15.9994           0
     15275 MEMB     123      POPE     O11      OSLP    -0.570000       15.9994           0
     15276 MEMB     123      POPE     O12      OSLP    -0.570000       15.9994           0
     15277 MEMB     123      POPE     C1       CTL2    -0.800000E-01   12.0110           0
     15278 MEMB     123      POPE     HA       HAL2     0.900000E-01   1.00800           0
     15279 MEMB     123      POPE     HB       HAL2     0.900000E-01   1.00800           0
     15280 MEMB     123      POPE     C2       CTL1     0.170000       12.0110           0
     15281 MEMB     123      POPE     HS       HAL1     0.900000E-01   1.00800           0
     15282 MEMB     123      POPE     O21      OSL     -0.490000       15.9994           0
     15283 MEMB     123      POPE     C21      CL       0.900000       12.0110           0
     15284 MEMB     123      POPE     O22      OBL     -0.630000       15.9994           0
     15285 MEMB     123      POPE     C22      CTL2    -0.220000       12.0110           0
     15286 MEMB     123      POPE     H2R      HAL2     0.900000E-01   1.00800           0
     15287 MEMB     123      POPE     H2S      HAL2     0.900000E-01   1.00800           0
     15288 MEMB     123      POPE     C3       CTL2     0.800000E-01   12.0110           0
     15289 MEMB     123      POPE     HX       HAL2     0.900000E-01   1.00800           0
     15290 MEMB     123      POPE     HY       HAL2     0.900000E-01   1.00800           0
     15291 MEMB     123      POPE     O31      OSL     -0.490000       15.9994           0
     15292 MEMB     123      POPE     C31      CL       0.900000       12.0110           0
     15293 MEMB     123      POPE     O32      OBL     -0.630000       15.9994           0
     15294 MEMB     123      POPE     C32      CTL2    -0.220000       12.0110           0
     15295 MEMB     123      POPE     H2X      HAL2     0.900000E-01   1.00800           0
     15296 MEMB     123      POPE     H2Y      HAL2     0.900000E-01   1.00800           0
     15297 MEMB     123      POPE     C23      CTL2    -0.180000       12.0110           0
     15298 MEMB     123      POPE     H3R      HAL2     0.900000E-01   1.00800           0
     15299 MEMB     123      POPE     H3S      HAL2     0.900000E-01   1.00800           0
     15300 MEMB     123      POPE     C24      CTL2    -0.180000       12.0110           0
     15301 MEMB     123      POPE     H4R      HAL2     0.900000E-01   1.00800           0
     15302 MEMB     123      POPE     H4S      HAL2     0.900000E-01   1.00800           0
     15303 MEMB     123      POPE     C25      CTL2    -0.180000       12.0110           0
     15304 MEMB     123      POPE     H5R      HAL2     0.900000E-01   1.00800           0
     15305 MEMB     123      POPE     H5S      HAL2     0.900000E-01   1.00800           0
     15306 MEMB     123      POPE     C26      CTL2    -0.180000       12.0110           0
     15307 MEMB     123      POPE     H6R      HAL2     0.900000E-01   1.00800           0
     15308 MEMB     123      POPE     H6S      HAL2     0.900000E-01   1.00800           0
     15309 MEMB     123      POPE     C27      CTL2    -0.180000       12.0110           0
     15310 MEMB     123      POPE     H7R      HAL2     0.900000E-01   1.00800           0
     15311 MEMB     123      POPE     H7S      HAL2     0.900000E-01   1.00800           0
     15312 MEMB     123      POPE     C28      CTL2    -0.180000       12.0110           0
     15313 MEMB     123      POPE     H8R      HAL2     0.900000E-01   1.00800           0
     15314 MEMB     123      POPE     H8S      HAL2     0.900000E-01   1.00800           0
     15315 MEMB     123      POPE     C29      CEL1    -0.150000       12.0110           0
     15316 MEMB     123      POPE     H91      HEL1     0.150000       1.00800           0
     15317 MEMB     123      POPE     C210     CEL1    -0.150000       12.0110           0
     15318 MEMB     123      POPE     H101     HEL1     0.150000       1.00800           0
     15319 MEMB     123      POPE     C211     CTL2    -0.180000       12.0110           0
     15320 MEMB     123      POPE     H11R     HAL2     0.900000E-01   1.00800           0
     15321 MEMB     123      POPE     H11S     HAL2     0.900000E-01   1.00800           0
     15322 MEMB     123      POPE     C212     CTL2    -0.180000       12.0110           0
     15323 MEMB     123      POPE     H12R     HAL2     0.900000E-01   1.00800           0
     15324 MEMB     123      POPE     H12S     HAL2     0.900000E-01   1.00800           0
     15325 MEMB     123      POPE     C213     CTL2    -0.180000       12.0110           0
     15326 MEMB     123      POPE     H13R     HAL2     0.900000E-01   1.00800           0
     15327 MEMB     123      POPE     H13S     HAL2     0.900000E-01   1.00800           0
     15328 MEMB     123      POPE     C214     CTL2    -0.180000       12.0110           0
     15329 MEMB     123      POPE     H14R     HAL2     0.900000E-01   1.00800           0
     15330 MEMB     123      POPE     H14S     HAL2     0.900000E-01   1.00800           0
     15331 MEMB     123      POPE     C215     CTL2    -0.180000       12.0110           0
     15332 MEMB     123      POPE     H15R     HAL2     0.900000E-01   1.00800           0
     15333 MEMB     123      POPE     H15S     HAL2     0.900000E-01   1.00800           0
     15334 MEMB     123      POPE     C216     CTL2    -0.180000       12.0110           0
     15335 MEMB     123      POPE     H16R     HAL2     0.900000E-01   1.00800           0
     15336 MEMB     123      POPE     H16S     HAL2     0.900000E-01   1.00800           0
     15337 MEMB     123      POPE     C217     CTL2    -0.180000       12.0110           0
     15338 MEMB     123      POPE     H17R     HAL2     0.900000E-01   1.00800           0
     15339 MEMB     123      POPE     H17S     HAL2     0.900000E-01   1.00800           0
     15340 MEMB     123      POPE     C218     CTL3    -0.270000       12.0110           0
     15341 MEMB     123      POPE     H18R     HAL3     0.900000E-01   1.00800           0
     15342 MEMB     123      POPE     H18S     HAL3     0.900000E-01   1.00800           0
     15343 MEMB     123      POPE     H18T     HAL3     0.900000E-01   1.00800           0
     15344 MEMB     123      POPE     C33      CTL2    -0.180000       12.0110           0
     15345 MEMB     123      POPE     H3X      HAL2     0.900000E-01   1.00800           0
     15346 MEMB     123      POPE     H3Y      HAL2     0.900000E-01   1.00800           0
     15347 MEMB     123      POPE     C34      CTL2    -0.180000       12.0110           0
     15348 MEMB     123      POPE     H4X      HAL2     0.900000E-01   1.00800           0
     15349 MEMB     123      POPE     H4Y      HAL2     0.900000E-01   1.00800           0
     15350 MEMB     123      POPE     C35      CTL2    -0.180000       12.0110           0
     15351 MEMB     123      POPE     H5X      HAL2     0.900000E-01   1.00800           0
     15352 MEMB     123      POPE     H5Y      HAL2     0.900000E-01   1.00800           0
     15353 MEMB     123      POPE     C36      CTL2    -0.180000       12.0110           0
     15354 MEMB     123      POPE     H6X      HAL2     0.900000E-01   1.00800           0
     15355 MEMB     123      POPE     H6Y      HAL2     0.900000E-01   1.00800           0
     15356 MEMB     123      POPE     C37      CTL2    -0.180000       12.0110           0
     15357 MEMB     123      POPE     H7X      HAL2     0.900000E-01   1.00800           0
     15358 MEMB     123      POPE     H7Y      HAL2     0.900000E-01   1.00800           0
     15359 MEMB     123      POPE     C38      CTL2    -0.180000       12.0110           0
     15360 MEMB     123      POPE     H8X      HAL2     0.900000E-01   1.00800           0
     15361 MEMB     123      POPE     H8Y      HAL2     0.900000E-01   1.00800           0
     15362 MEMB     123      POPE     C39      CTL2    -0.180000       12.0110           0
     15363 MEMB     123      POPE     H9X      HAL2     0.900000E-01   1.00800           0
     15364 MEMB     123      POPE     H9Y      HAL2     0.900000E-01   1.00800           0
     15365 MEMB     123      POPE     C310     CTL2    -0.180000       12.0110           0
     15366 MEMB     123      POPE     H10X     HAL2     0.900000E-01   1.00800           0
     15367 MEMB     123      POPE     H10Y     HAL2     0.900000E-01   1.00800           0
     15368 MEMB     123      POPE     C311     CTL2    -0.180000       12.0110           0
     15369 MEMB     123      POPE     H11X     HAL2     0.900000E-01   1.00800           0
     15370 MEMB     123      POPE     H11Y     HAL2     0.900000E-01   1.00800           0
     15371 MEMB     123      POPE     C312     CTL2    -0.180000       12.0110           0
     15372 MEMB     123      POPE     H12X     HAL2     0.900000E-01   1.00800           0
     15373 MEMB     123      POPE     H12Y     HAL2     0.900000E-01   1.00800           0
     15374 MEMB     123      POPE     C313     CTL2    -0.180000       12.0110           0
     15375 MEMB     123      POPE     H13X     HAL2     0.900000E-01   1.00800           0
     15376 MEMB     123      POPE     H13Y     HAL2     0.900000E-01   1.00800           0
     15377 MEMB     123      POPE     C314     CTL2    -0.180000       12.0110           0
     15378 MEMB     123      POPE     H14X     HAL2     0.900000E-01   1.00800           0
     15379 MEMB     123      POPE     H14Y     HAL2     0.900000E-01   1.00800           0
     15380 MEMB     123      POPE     C315     CTL2    -0.180000       12.0110           0
     15381 MEMB     123      POPE     H15X     HAL2     0.900000E-01   1.00800           0
     15382 MEMB     123      POPE     H15Y     HAL2     0.900000E-01   1.00800           0
     15383 MEMB     123      POPE     C316     CTL3    -0.270000       12.0110           0
     15384 MEMB     123      POPE     H16X     HAL3     0.900000E-01   1.00800           0
     15385 MEMB     123      POPE     H16Y     HAL3     0.900000E-01   1.00800           0
     15386 MEMB     123      POPE     H16Z     HAL3     0.900000E-01   1.00800           0
     15387 MEMB     124      PMPE     N        NH3L    -0.300000       14.0070           0
     15388 MEMB     124      PMPE     HN1      HCL      0.330000       1.00800           0
     15389 MEMB     124      PMPE     HN2      HCL      0.330000       1.00800           0
     15390 MEMB     124      PMPE     HN3      HCL      0.330000       1.00800           0
     15391 MEMB     124      PMPE     C12      CTL2     0.130000       12.0110           0
     15392 MEMB     124      PMPE     H12A     HAL2     0.900000E-01   1.00800           0
     15393 MEMB     124      PMPE     H12B     HAL2     0.900000E-01   1.00800           0
     15394 MEMB     124      PMPE     C11      CTL2    -0.800000E-01   12.0110           0
     15395 MEMB     124      PMPE     H11A     HAL2     0.900000E-01   1.00800           0
     15396 MEMB     124      PMPE     H11B     HAL2     0.900000E-01   1.00800           0
     15397 MEMB     124      PMPE     P        PL        1.50000       30.9740           0
     15398 MEMB     124      PMPE     O13      O2L     -0.780000       15.9994           0
     15399 MEMB     124      PMPE     O14      O2L     -0.780000       15.9994           0
     15400 MEMB     124      PMPE     O11      OSLP    -0.570000       15.9994           0
     15401 MEMB     124      PMPE     O12      OSLP    -0.570000       15.9994           0
     15402 MEMB     124      PMPE     C1       CTL2    -0.800000E-01   12.0110           0
     15403 MEMB     124      PMPE     HA       HAL2     0.900000E-01   1.00800           0
     15404 MEMB     124      PMPE     HB       HAL2     0.900000E-01   1.00800           0
     15405 MEMB     124      PMPE     C2       CTL1     0.170000       12.0110           0
     15406 MEMB     124      PMPE     HS       HAL1     0.900000E-01   1.00800           0
     15407 MEMB     124      PMPE     O21      OSL     -0.490000       15.9994           0
     15408 MEMB     124      PMPE     C21      CL       0.900000       12.0110           0
     15409 MEMB     124      PMPE     O22      OBL     -0.630000       15.9994           0
     15410 MEMB     124      PMPE     C22      CTL2    -0.220000       12.0110           0
     15411 MEMB     124      PMPE     H2R      HAL2     0.900000E-01   1.00800           0
     15412 MEMB     124      PMPE     H2S      HAL2     0.900000E-01   1.00800           0
     15413 MEMB     124      PMPE     C3       CTL2     0.800000E-01   12.0110           0
     15414 MEMB     124      PMPE     HX       HAL2     0.900000E-01   1.00800           0
     15415 MEMB     124      PMPE     HY       HAL2     0.900000E-01   1.00800           0
     15416 MEMB     124      PMPE     O31      OSL     -0.490000       15.9994           0
     15417 MEMB     124      PMPE     C31      CL       0.900000       12.0110           0
     15418 MEMB     124      PMPE     O32      OBL     -0.630000       15.9994           0
     15419 MEMB     124      PMPE     C32      CTL2    -0.220000       12.0110           0
     15420 MEMB     124      PMPE     H2X      HAL2     0.900000E-01   1.00800           0
     15421 MEMB     124      PMPE     H2Y      HAL2     0.900000E-01   1.00800           0
     15422 MEMB     124      PMPE     C23      CTL2    -0.180000       12.0110           0
     15423 MEMB     124      PMPE     H3R      HAL2     0.900000E-01   1.00800           0
     15424 MEMB     124      PMPE     H3S      HAL2     0.900000E-01   1.00800           0
     15425 MEMB     124      PMPE     C24      CTL2    -0.180000       12.0110           0
     15426 MEMB     124      PMPE     H4R      HAL2     0.900000E-01   1.00800           0
     15427 MEMB     124      PMPE     H4S      HAL2     0.900000E-01   1.00800           0
     15428 MEMB     124      PMPE     C25      CTL2    -0.180000       12.0110           0
     15429 MEMB     124      PMPE     H5R      HAL2     0.900000E-01   1.00800           0
     15430 MEMB     124      PMPE     H5S      HAL2     0.900000E-01   1.00800           0
     15431 MEMB     124      PMPE     C26      CTL2    -0.180000       12.0110           0
     15432 MEMB     124      PMPE     H6R      HAL2     0.900000E-01   1.00800           0
     15433 MEMB     124      PMPE     H6S      HAL2     0.900000E-01   1.00800           0
     15434 MEMB     124      PMPE     C27      CTL2    -0.180000       12.0110           0
     15435 MEMB     124      PMPE     H7R      HAL2     0.900000E-01   1.00800           0
     15436 MEMB     124      PMPE     H7S      HAL2     0.900000E-01   1.00800           0
     15437 MEMB     124      PMPE     C28      CTL2    -0.180000       12.0110           0
     15438 MEMB     124      PMPE     H8R      HAL2     0.900000E-01   1.00800           0
     15439 MEMB     124      PMPE     H8S      HAL2     0.900000E-01   1.00800           0
     15440 MEMB     124      PMPE     C29      CG3RC1  -0.900000E-01   12.0110           0
     15441 MEMB     124      PMPE     H9R      HGA1     0.900000E-01   1.00800           0
     15442 MEMB     124      PMPE     C217     CG3C31  -0.180000       12.0110           0
     15443 MEMB     124      PMPE     H17R     HGA2     0.900000E-01   1.00800           0
     15444 MEMB     124      PMPE     H17S     HGA2     0.900000E-01   1.00800           0
     15445 MEMB     124      PMPE     C210     CG3RC1  -0.900000E-01   12.0110           0
     15446 MEMB     124      PMPE     H10R     HGA1     0.900000E-01   1.00800           0
     15447 MEMB     124      PMPE     C211     CTL2    -0.180000       12.0110           0
     15448 MEMB     124      PMPE     H11R     HAL2     0.900000E-01   1.00800           0
     15449 MEMB     124      PMPE     H11S     HAL2     0.900000E-01   1.00800           0
     15450 MEMB     124      PMPE     C212     CTL2    -0.180000       12.0110           0
     15451 MEMB     124      PMPE     H12R     HAL2     0.900000E-01   1.00800           0
     15452 MEMB     124      PMPE     H12S     HAL2     0.900000E-01   1.00800           0
     15453 MEMB     124      PMPE     C213     CTL2    -0.180000       12.0110           0
     15454 MEMB     124      PMPE     H13R     HAL2     0.900000E-01   1.00800           0
     15455 MEMB     124      PMPE     H13S     HAL2     0.900000E-01   1.00800           0
     15456 MEMB     124      PMPE     C214     CTL2    -0.180000       12.0110           0
     15457 MEMB     124      PMPE     H14R     HAL2     0.900000E-01   1.00800           0
     15458 MEMB     124      PMPE     H14S     HAL2     0.900000E-01   1.00800           0
     15459 MEMB     124      PMPE     C215     CTL2    -0.180000       12.0110           0
     15460 MEMB     124      PMPE     H15R     HAL2     0.900000E-01   1.00800           0
     15461 MEMB     124      PMPE     H15S     HAL2     0.900000E-01   1.00800           0
     15462 MEMB     124      PMPE     C216     CTL3    -0.270000       12.0110           0
     15463 MEMB     124      PMPE     H16R     HAL3     0.900000E-01   1.00800           0
     15464 MEMB     124      PMPE     H16S     HAL3     0.900000E-01   1.00800           0
     15465 MEMB     124      PMPE     H16T     HAL3     0.900000E-01   1.00800           0
     15466 MEMB     124      PMPE     C33      CTL2    -0.180000       12.0110           0
     15467 MEMB     124      PMPE     H3X      HAL2     0.900000E-01   1.00800           0
     15468 MEMB     124      PMPE     H3Y      HAL2     0.900000E-01   1.00800           0
     15469 MEMB     124      PMPE     C34      CTL2    -0.180000       12.0110           0
     15470 MEMB     124      PMPE     H4X      HAL2     0.900000E-01   1.00800           0
     15471 MEMB     124      PMPE     H4Y      HAL2     0.900000E-01   1.00800           0
     15472 MEMB     124      PMPE     C35      CTL2    -0.180000       12.0110           0
     15473 MEMB     124      PMPE     H5X      HAL2     0.900000E-01   1.00800           0
     15474 MEMB     124      PMPE     H5Y      HAL2     0.900000E-01   1.00800           0
     15475 MEMB     124      PMPE     C36      CTL2    -0.180000       12.0110           0
     15476 MEMB     124      PMPE     H6X      HAL2     0.900000E-01   1.00800           0
     15477 MEMB     124      PMPE     H6Y      HAL2     0.900000E-01   1.00800           0
     15478 MEMB     124      PMPE     C37      CTL2    -0.180000       12.0110           0
     15479 MEMB     124      PMPE     H7X      HAL2     0.900000E-01   1.00800           0
     15480 MEMB     124      PMPE     H7Y      HAL2     0.900000E-01   1.00800           0
     15481 MEMB     124      PMPE     C38      CTL2    -0.180000       12.0110           0
     15482 MEMB     124      PMPE     H8X      HAL2     0.900000E-01   1.00800           0
     15483 MEMB     124      PMPE     H8Y      HAL2     0.900000E-01   1.00800           0
     15484 MEMB     124      PMPE     C39      CTL2    -0.180000       12.0110           0
     15485 MEMB     124      PMPE     H9X      HAL2     0.900000E-01   1.00800           0
     15486 MEMB     124      PMPE     H9Y      HAL2     0.900000E-01   1.00800           0
     15487 MEMB     124      PMPE     C310     CTL2    -0.180000       12.0110           0
     15488 MEMB     124      PMPE     H10X     HAL2     0.900000E-01   1.00800           0
     15489 MEMB     124      PMPE     H10Y     HAL2     0.900000E-01   1.00800           0
     15490 MEMB     124      PMPE     C311     CTL2    -0.180000       12.0110           0
     15491 MEMB     124      PMPE     H11X     HAL2     0.900000E-01   1.00800           0
     15492 MEMB     124      PMPE     H11Y     HAL2     0.900000E-01   1.00800           0
     15493 MEMB     124      PMPE     C312     CTL2    -0.180000       12.0110           0
     15494 MEMB     124      PMPE     H12X     HAL2     0.900000E-01   1.00800           0
     15495 MEMB     124      PMPE     H12Y     HAL2     0.900000E-01   1.00800           0
     15496 MEMB     124      PMPE     C313     CTL2    -0.180000       12.0110           0
     15497 MEMB     124      PMPE     H13X     HAL2     0.900000E-01   1.00800           0
     15498 MEMB     124      PMPE     H13Y     HAL2     0.900000E-01   1.00800           0
     15499 MEMB     124      PMPE     C314     CTL2    -0.180000       12.0110           0
     15500 MEMB     124      PMPE     H14X     HAL2     0.900000E-01   1.00800           0
     15501 MEMB     124      PMPE     H14Y     HAL2     0.900000E-01   1.00800           0
     15502 MEMB     124      PMPE     C315     CTL2    -0.180000       12.0110           0
     15503 MEMB     124      PMPE     H15X     HAL2     0.900000E-01   1.00800           0
     15504 MEMB     124      PMPE     H15Y     HAL2     0.900000E-01   1.00800           0
     15505 MEMB     124      PMPE     C316     CTL3    -0.270000       12.0110           0
     15506 MEMB     124      PMPE     H16X     HAL3     0.900000E-01   1.00800           0
     15507 MEMB     124      PMPE     H16Y     HAL3     0.900000E-01   1.00800           0
     15508 MEMB     124      PMPE     H16Z     HAL3     0.900000E-01   1.00800           0
     15509 MEMB     125      PMPE     N        NH3L    -0.300000       14.0070           0
     15510 MEMB     125      PMPE     HN1      HCL      0.330000       1.00800           0
     15511 MEMB     125      PMPE     HN2      HCL      0.330000       1.00800           0
     15512 MEMB     125      PMPE     HN3      HCL      0.330000       1.00800           0
     15513 MEMB     125      PMPE     C12      CTL2     0.130000       12.0110           0
     15514 MEMB     125      PMPE     H12A     HAL2     0.900000E-01   1.00800           0
     15515 MEMB     125      PMPE     H12B     HAL2     0.900000E-01   1.00800           0
     15516 MEMB     125      PMPE     C11      CTL2    -0.800000E-01   12.0110           0
     15517 MEMB     125      PMPE     H11A     HAL2     0.900000E-01   1.00800           0
     15518 MEMB     125      PMPE     H11B     HAL2     0.900000E-01   1.00800           0
     15519 MEMB     125      PMPE     P        PL        1.50000       30.9740           0
     15520 MEMB     125      PMPE     O13      O2L     -0.780000       15.9994           0
     15521 MEMB     125      PMPE     O14      O2L     -0.780000       15.9994           0
     15522 MEMB     125      PMPE     O11      OSLP    -0.570000       15.9994           0
     15523 MEMB     125      PMPE     O12      OSLP    -0.570000       15.9994           0
     15524 MEMB     125      PMPE     C1       CTL2    -0.800000E-01   12.0110           0
     15525 MEMB     125      PMPE     HA       HAL2     0.900000E-01   1.00800           0
     15526 MEMB     125      PMPE     HB       HAL2     0.900000E-01   1.00800           0
     15527 MEMB     125      PMPE     C2       CTL1     0.170000       12.0110           0
     15528 MEMB     125      PMPE     HS       HAL1     0.900000E-01   1.00800           0
     15529 MEMB     125      PMPE     O21      OSL     -0.490000       15.9994           0
     15530 MEMB     125      PMPE     C21      CL       0.900000       12.0110           0
     15531 MEMB     125      PMPE     O22      OBL     -0.630000       15.9994           0
     15532 MEMB     125      PMPE     C22      CTL2    -0.220000       12.0110           0
     15533 MEMB     125      PMPE     H2R      HAL2     0.900000E-01   1.00800           0
     15534 MEMB     125      PMPE     H2S      HAL2     0.900000E-01   1.00800           0
     15535 MEMB     125      PMPE     C3       CTL2     0.800000E-01   12.0110           0
     15536 MEMB     125      PMPE     HX       HAL2     0.900000E-01   1.00800           0
     15537 MEMB     125      PMPE     HY       HAL2     0.900000E-01   1.00800           0
     15538 MEMB     125      PMPE     O31      OSL     -0.490000       15.9994           0
     15539 MEMB     125      PMPE     C31      CL       0.900000       12.0110           0
     15540 MEMB     125      PMPE     O32      OBL     -0.630000       15.9994           0
     15541 MEMB     125      PMPE     C32      CTL2    -0.220000       12.0110           0
     15542 MEMB     125      PMPE     H2X      HAL2     0.900000E-01   1.00800           0
     15543 MEMB     125      PMPE     H2Y      HAL2     0.900000E-01   1.00800           0
     15544 MEMB     125      PMPE     C23      CTL2    -0.180000       12.0110           0
     15545 MEMB     125      PMPE     H3R      HAL2     0.900000E-01   1.00800           0
     15546 MEMB     125      PMPE     H3S      HAL2     0.900000E-01   1.00800           0
     15547 MEMB     125      PMPE     C24      CTL2    -0.180000       12.0110           0
     15548 MEMB     125      PMPE     H4R      HAL2     0.900000E-01   1.00800           0
     15549 MEMB     125      PMPE     H4S      HAL2     0.900000E-01   1.00800           0
     15550 MEMB     125      PMPE     C25      CTL2    -0.180000       12.0110           0
     15551 MEMB     125      PMPE     H5R      HAL2     0.900000E-01   1.00800           0
     15552 MEMB     125      PMPE     H5S      HAL2     0.900000E-01   1.00800           0
     15553 MEMB     125      PMPE     C26      CTL2    -0.180000       12.0110           0
     15554 MEMB     125      PMPE     H6R      HAL2     0.900000E-01   1.00800           0
     15555 MEMB     125      PMPE     H6S      HAL2     0.900000E-01   1.00800           0
     15556 MEMB     125      PMPE     C27      CTL2    -0.180000       12.0110           0
     15557 MEMB     125      PMPE     H7R      HAL2     0.900000E-01   1.00800           0
     15558 MEMB     125      PMPE     H7S      HAL2     0.900000E-01   1.00800           0
     15559 MEMB     125      PMPE     C28      CTL2    -0.180000       12.0110           0
     15560 MEMB     125      PMPE     H8R      HAL2     0.900000E-01   1.00800           0
     15561 MEMB     125      PMPE     H8S      HAL2     0.900000E-01   1.00800           0
     15562 MEMB     125      PMPE     C29      CG3RC1  -0.900000E-01   12.0110           0
     15563 MEMB     125      PMPE     H9R      HGA1     0.900000E-01   1.00800           0
     15564 MEMB     125      PMPE     C217     CG3C31  -0.180000       12.0110           0
     15565 MEMB     125      PMPE     H17R     HGA2     0.900000E-01   1.00800           0
     15566 MEMB     125      PMPE     H17S     HGA2     0.900000E-01   1.00800           0
     15567 MEMB     125      PMPE     C210     CG3RC1  -0.900000E-01   12.0110           0
     15568 MEMB     125      PMPE     H10R     HGA1     0.900000E-01   1.00800           0
     15569 MEMB     125      PMPE     C211     CTL2    -0.180000       12.0110           0
     15570 MEMB     125      PMPE     H11R     HAL2     0.900000E-01   1.00800           0
     15571 MEMB     125      PMPE     H11S     HAL2     0.900000E-01   1.00800           0
     15572 MEMB     125      PMPE     C212     CTL2    -0.180000       12.0110           0
     15573 MEMB     125      PMPE     H12R     HAL2     0.900000E-01   1.00800           0
     15574 MEMB     125      PMPE     H12S     HAL2     0.900000E-01   1.00800           0
     15575 MEMB     125      PMPE     C213     CTL2    -0.180000       12.0110           0
     15576 MEMB     125      PMPE     H13R     HAL2     0.900000E-01   1.00800           0
     15577 MEMB     125      PMPE     H13S     HAL2     0.900000E-01   1.00800           0
     15578 MEMB     125      PMPE     C214     CTL2    -0.180000       12.0110           0
     15579 MEMB     125      PMPE     H14R     HAL2     0.900000E-01   1.00800           0
     15580 MEMB     125      PMPE     H14S     HAL2     0.900000E-01   1.00800           0
     15581 MEMB     125      PMPE     C215     CTL2    -0.180000       12.0110           0
     15582 MEMB     125      PMPE     H15R     HAL2     0.900000E-01   1.00800           0
     15583 MEMB     125      PMPE     H15S     HAL2     0.900000E-01   1.00800           0
     15584 MEMB     125      PMPE     C216     CTL3    -0.270000       12.0110           0
     15585 MEMB     125      PMPE     H16R     HAL3     0.900000E-01   1.00800           0
     15586 MEMB     125      PMPE     H16S     HAL3     0.900000E-01   1.00800           0
     15587 MEMB     125      PMPE     H16T     HAL3     0.900000E-01   1.00800           0
     15588 MEMB     125      PMPE     C33      CTL2    -0.180000       12.0110           0
     15589 MEMB     125      PMPE     H3X      HAL2     0.900000E-01   1.00800           0
     15590 MEMB     125      PMPE     H3Y      HAL2     0.900000E-01   1.00800           0
     15591 MEMB     125      PMPE     C34      CTL2    -0.180000       12.0110           0
     15592 MEMB     125      PMPE     H4X      HAL2     0.900000E-01   1.00800           0
     15593 MEMB     125      PMPE     H4Y      HAL2     0.900000E-01   1.00800           0
     15594 MEMB     125      PMPE     C35      CTL2    -0.180000       12.0110           0
     15595 MEMB     125      PMPE     H5X      HAL2     0.900000E-01   1.00800           0
     15596 MEMB     125      PMPE     H5Y      HAL2     0.900000E-01   1.00800           0
     15597 MEMB     125      PMPE     C36      CTL2    -0.180000       12.0110           0
     15598 MEMB     125      PMPE     H6X      HAL2     0.900000E-01   1.00800           0
     15599 MEMB     125      PMPE     H6Y      HAL2     0.900000E-01   1.00800           0
     15600 MEMB     125      PMPE     C37      CTL2    -0.180000       12.0110           0
     15601 MEMB     125      PMPE     H7X      HAL2     0.900000E-01   1.00800           0
     15602 MEMB     125      PMPE     H7Y      HAL2     0.900000E-01   1.00800           0
     15603 MEMB     125      PMPE     C38      CTL2    -0.180000       12.0110           0
     15604 MEMB     125      PMPE     H8X      HAL2     0.900000E-01   1.00800           0
     15605 MEMB     125      PMPE     H8Y      HAL2     0.900000E-01   1.00800           0
     15606 MEMB     125      PMPE     C39      CTL2    -0.180000       12.0110           0
     15607 MEMB     125      PMPE     H9X      HAL2     0.900000E-01   1.00800           0
     15608 MEMB     125      PMPE     H9Y      HAL2     0.900000E-01   1.00800           0
     15609 MEMB     125      PMPE     C310     CTL2    -0.180000       12.0110           0
     15610 MEMB     125      PMPE     H10X     HAL2     0.900000E-01   1.00800           0
     15611 MEMB     125      PMPE     H10Y     HAL2     0.900000E-01   1.00800           0
     15612 MEMB     125      PMPE     C311     CTL2    -0.180000       12.0110           0
     15613 MEMB     125      PMPE     H11X     HAL2     0.900000E-01   1.00800           0
     15614 MEMB     125      PMPE     H11Y     HAL2     0.900000E-01   1.00800           0
     15615 MEMB     125      PMPE     C312     CTL2    -0.180000       12.0110           0
     15616 MEMB     125      PMPE     H12X     HAL2     0.900000E-01   1.00800           0
     15617 MEMB     125      PMPE     H12Y     HAL2     0.900000E-01   1.00800           0
     15618 MEMB     125      PMPE     C313     CTL2    -0.180000       12.0110           0
     15619 MEMB     125      PMPE     H13X     HAL2     0.900000E-01   1.00800           0
     15620 MEMB     125      PMPE     H13Y     HAL2     0.900000E-01   1.00800           0
     15621 MEMB     125      PMPE     C314     CTL2    -0.180000       12.0110           0
     15622 MEMB     125      PMPE     H14X     HAL2     0.900000E-01   1.00800           0
     15623 MEMB     125      PMPE     H14Y     HAL2     0.900000E-01   1.00800           0
     15624 MEMB     125      PMPE     C315     CTL2    -0.180000       12.0110           0
     15625 MEMB     125      PMPE     H15X     HAL2     0.900000E-01   1.00800           0
     15626 MEMB     125      PMPE     H15Y     HAL2     0.900000E-01   1.00800           0
     15627 MEMB     125      PMPE     C316     CTL3    -0.270000       12.0110           0
     15628 MEMB     125      PMPE     H16X     HAL3     0.900000E-01   1.00800           0
     15629 MEMB     125      PMPE     H16Y     HAL3     0.900000E-01   1.00800           0
     15630 MEMB     125      PMPE     H16Z     HAL3     0.900000E-01   1.00800           0
     15631 MEMB     126      PMPE     N        NH3L    -0.300000       14.0070           0
     15632 MEMB     126      PMPE     HN1      HCL      0.330000       1.00800           0
     15633 MEMB     126      PMPE     HN2      HCL      0.330000       1.00800           0
     15634 MEMB     126      PMPE     HN3      HCL      0.330000       1.00800           0
     15635 MEMB     126      PMPE     C12      CTL2     0.130000       12.0110           0
     15636 MEMB     126      PMPE     H12A     HAL2     0.900000E-01   1.00800           0
     15637 MEMB     126      PMPE     H12B     HAL2     0.900000E-01   1.00800           0
     15638 MEMB     126      PMPE     C11      CTL2    -0.800000E-01   12.0110           0
     15639 MEMB     126      PMPE     H11A     HAL2     0.900000E-01   1.00800           0
     15640 MEMB     126      PMPE     H11B     HAL2     0.900000E-01   1.00800           0
     15641 MEMB     126      PMPE     P        PL        1.50000       30.9740           0
     15642 MEMB     126      PMPE     O13      O2L     -0.780000       15.9994           0
     15643 MEMB     126      PMPE     O14      O2L     -0.780000       15.9994           0
     15644 MEMB     126      PMPE     O11      OSLP    -0.570000       15.9994           0
     15645 MEMB     126      PMPE     O12      OSLP    -0.570000       15.9994           0
     15646 MEMB     126      PMPE     C1       CTL2    -0.800000E-01   12.0110           0
     15647 MEMB     126      PMPE     HA       HAL2     0.900000E-01   1.00800           0
     15648 MEMB     126      PMPE     HB       HAL2     0.900000E-01   1.00800           0
     15649 MEMB     126      PMPE     C2       CTL1     0.170000       12.0110           0
     15650 MEMB     126      PMPE     HS       HAL1     0.900000E-01   1.00800           0
     15651 MEMB     126      PMPE     O21      OSL     -0.490000       15.9994           0
     15652 MEMB     126      PMPE     C21      CL       0.900000       12.0110           0
     15653 MEMB     126      PMPE     O22      OBL     -0.630000       15.9994           0
     15654 MEMB     126      PMPE     C22      CTL2    -0.220000       12.0110           0
     15655 MEMB     126      PMPE     H2R      HAL2     0.900000E-01   1.00800           0
     15656 MEMB     126      PMPE     H2S      HAL2     0.900000E-01   1.00800           0
     15657 MEMB     126      PMPE     C3       CTL2     0.800000E-01   12.0110           0
     15658 MEMB     126      PMPE     HX       HAL2     0.900000E-01   1.00800           0
     15659 MEMB     126      PMPE     HY       HAL2     0.900000E-01   1.00800           0
     15660 MEMB     126      PMPE     O31      OSL     -0.490000       15.9994           0
     15661 MEMB     126      PMPE     C31      CL       0.900000       12.0110           0
     15662 MEMB     126      PMPE     O32      OBL     -0.630000       15.9994           0
     15663 MEMB     126      PMPE     C32      CTL2    -0.220000       12.0110           0
     15664 MEMB     126      PMPE     H2X      HAL2     0.900000E-01   1.00800           0
     15665 MEMB     126      PMPE     H2Y      HAL2     0.900000E-01   1.00800           0
     15666 MEMB     126      PMPE     C23      CTL2    -0.180000       12.0110           0
     15667 MEMB     126      PMPE     H3R      HAL2     0.900000E-01   1.00800           0
     15668 MEMB     126      PMPE     H3S      HAL2     0.900000E-01   1.00800           0
     15669 MEMB     126      PMPE     C24      CTL2    -0.180000       12.0110           0
     15670 MEMB     126      PMPE     H4R      HAL2     0.900000E-01   1.00800           0
     15671 MEMB     126      PMPE     H4S      HAL2     0.900000E-01   1.00800           0
     15672 MEMB     126      PMPE     C25      CTL2    -0.180000       12.0110           0
     15673 MEMB     126      PMPE     H5R      HAL2     0.900000E-01   1.00800           0
     15674 MEMB     126      PMPE     H5S      HAL2     0.900000E-01   1.00800           0
     15675 MEMB     126      PMPE     C26      CTL2    -0.180000       12.0110           0
     15676 MEMB     126      PMPE     H6R      HAL2     0.900000E-01   1.00800           0
     15677 MEMB     126      PMPE     H6S      HAL2     0.900000E-01   1.00800           0
     15678 MEMB     126      PMPE     C27      CTL2    -0.180000       12.0110           0
     15679 MEMB     126      PMPE     H7R      HAL2     0.900000E-01   1.00800           0
     15680 MEMB     126      PMPE     H7S      HAL2     0.900000E-01   1.00800           0
     15681 MEMB     126      PMPE     C28      CTL2    -0.180000       12.0110           0
     15682 MEMB     126      PMPE     H8R      HAL2     0.900000E-01   1.00800           0
     15683 MEMB     126      PMPE     H8S      HAL2     0.900000E-01   1.00800           0
     15684 MEMB     126      PMPE     C29      CG3RC1  -0.900000E-01   12.0110           0
     15685 MEMB     126      PMPE     H9R      HGA1     0.900000E-01   1.00800           0
     15686 MEMB     126      PMPE     C217     CG3C31  -0.180000       12.0110           0
     15687 MEMB     126      PMPE     H17R     HGA2     0.900000E-01   1.00800           0
     15688 MEMB     126      PMPE     H17S     HGA2     0.900000E-01   1.00800           0
     15689 MEMB     126      PMPE     C210     CG3RC1  -0.900000E-01   12.0110           0
     15690 MEMB     126      PMPE     H10R     HGA1     0.900000E-01   1.00800           0
     15691 MEMB     126      PMPE     C211     CTL2    -0.180000       12.0110           0
     15692 MEMB     126      PMPE     H11R     HAL2     0.900000E-01   1.00800           0
     15693 MEMB     126      PMPE     H11S     HAL2     0.900000E-01   1.00800           0
     15694 MEMB     126      PMPE     C212     CTL2    -0.180000       12.0110           0
     15695 MEMB     126      PMPE     H12R     HAL2     0.900000E-01   1.00800           0
     15696 MEMB     126      PMPE     H12S     HAL2     0.900000E-01   1.00800           0
     15697 MEMB     126      PMPE     C213     CTL2    -0.180000       12.0110           0
     15698 MEMB     126      PMPE     H13R     HAL2     0.900000E-01   1.00800           0
     15699 MEMB     126      PMPE     H13S     HAL2     0.900000E-01   1.00800           0
     15700 MEMB     126      PMPE     C214     CTL2    -0.180000       12.0110           0
     15701 MEMB     126      PMPE     H14R     HAL2     0.900000E-01   1.00800           0
     15702 MEMB     126      PMPE     H14S     HAL2     0.900000E-01   1.00800           0
     15703 MEMB     126      PMPE     C215     CTL2    -0.180000       12.0110           0
     15704 MEMB     126      PMPE     H15R     HAL2     0.900000E-01   1.00800           0
     15705 MEMB     126      PMPE     H15S     HAL2     0.900000E-01   1.00800           0
     15706 MEMB     126      PMPE     C216     CTL3    -0.270000       12.0110           0
     15707 MEMB     126      PMPE     H16R     HAL3     0.900000E-01   1.00800           0
     15708 MEMB     126      PMPE     H16S     HAL3     0.900000E-01   1.00800           0
     15709 MEMB     126      PMPE     H16T     HAL3     0.900000E-01   1.00800           0
     15710 MEMB     126      PMPE     C33      CTL2    -0.180000       12.0110           0
     15711 MEMB     126      PMPE     H3X      HAL2     0.900000E-01   1.00800           0
     15712 MEMB     126      PMPE     H3Y      HAL2     0.900000E-01   1.00800           0
     15713 MEMB     126      PMPE     C34      CTL2    -0.180000       12.0110           0
     15714 MEMB     126      PMPE     H4X      HAL2     0.900000E-01   1.00800           0
     15715 MEMB     126      PMPE     H4Y      HAL2     0.900000E-01   1.00800           0
     15716 MEMB     126      PMPE     C35      CTL2    -0.180000       12.0110           0
     15717 MEMB     126      PMPE     H5X      HAL2     0.900000E-01   1.00800           0
     15718 MEMB     126      PMPE     H5Y      HAL2     0.900000E-01   1.00800           0
     15719 MEMB     126      PMPE     C36      CTL2    -0.180000       12.0110           0
     15720 MEMB     126      PMPE     H6X      HAL2     0.900000E-01   1.00800           0
     15721 MEMB     126      PMPE     H6Y      HAL2     0.900000E-01   1.00800           0
     15722 MEMB     126      PMPE     C37      CTL2    -0.180000       12.0110           0
     15723 MEMB     126      PMPE     H7X      HAL2     0.900000E-01   1.00800           0
     15724 MEMB     126      PMPE     H7Y      HAL2     0.900000E-01   1.00800           0
     15725 MEMB     126      PMPE     C38      CTL2    -0.180000       12.0110           0
     15726 MEMB     126      PMPE     H8X      HAL2     0.900000E-01   1.00800           0
     15727 MEMB     126      PMPE     H8Y      HAL2     0.900000E-01   1.00800           0
     15728 MEMB     126      PMPE     C39      CTL2    -0.180000       12.0110           0
     15729 MEMB     126      PMPE     H9X      HAL2     0.900000E-01   1.00800           0
     15730 MEMB     126      PMPE     H9Y      HAL2     0.900000E-01   1.00800           0
     15731 MEMB     126      PMPE     C310     CTL2    -0.180000       12.0110           0
     15732 MEMB     126      PMPE     H10X     HAL2     0.900000E-01   1.00800           0
     15733 MEMB     126      PMPE     H10Y     HAL2     0.900000E-01   1.00800           0
     15734 MEMB     126      PMPE     C311     CTL2    -0.180000       12.0110           0
     15735 MEMB     126      PMPE     H11X     HAL2     0.900000E-01   1.00800           0
     15736 MEMB     126      PMPE     H11Y     HAL2     0.900000E-01   1.00800           0
     15737 MEMB     126      PMPE     C312     CTL2    -0.180000       12.0110           0
     15738 MEMB     126      PMPE     H12X     HAL2     0.900000E-01   1.00800           0
     15739 MEMB     126      PMPE     H12Y     HAL2     0.900000E-01   1.00800           0
     15740 MEMB     126      PMPE     C313     CTL2    -0.180000       12.0110           0
     15741 MEMB     126      PMPE     H13X     HAL2     0.900000E-01   1.00800           0
     15742 MEMB     126      PMPE     H13Y     HAL2     0.900000E-01   1.00800           0
     15743 MEMB     126      PMPE     C314     CTL2    -0.180000       12.0110           0
     15744 MEMB     126      PMPE     H14X     HAL2     0.900000E-01   1.00800           0
     15745 MEMB     126      PMPE     H14Y     HAL2     0.900000E-01   1.00800           0
     15746 MEMB     126      PMPE     C315     CTL2    -0.180000       12.0110           0
     15747 MEMB     126      PMPE     H15X     HAL2     0.900000E-01   1.00800           0
     15748 MEMB     126      PMPE     H15Y     HAL2     0.900000E-01   1.00800           0
     15749 MEMB     126      PMPE     C316     CTL3    -0.270000       12.0110           0
     15750 MEMB     126      PMPE     H16X     HAL3     0.900000E-01   1.00800           0
     15751 MEMB     126      PMPE     H16Y     HAL3     0.900000E-01   1.00800           0
     15752 MEMB     126      PMPE     H16Z     HAL3     0.900000E-01   1.00800           0
     15753 MEMB     127      PMPE     N        NH3L    -0.300000       14.0070           0
     15754 MEMB     127      PMPE     HN1      HCL      0.330000       1.00800           0
     15755 MEMB     127      PMPE     HN2      HCL      0.330000       1.00800           0
     15756 MEMB     127      PMPE     HN3      HCL      0.330000       1.00800           0
     15757 MEMB     127      PMPE     C12      CTL2     0.130000       12.0110           0
     15758 MEMB     127      PMPE     H12A     HAL2     0.900000E-01   1.00800           0
     15759 MEMB     127      PMPE     H12B     HAL2     0.900000E-01   1.00800           0
     15760 MEMB     127      PMPE     C11      CTL2    -0.800000E-01   12.0110           0
     15761 MEMB     127      PMPE     H11A     HAL2     0.900000E-01   1.00800           0
     15762 MEMB     127      PMPE     H11B     HAL2     0.900000E-01   1.00800           0
     15763 MEMB     127      PMPE     P        PL        1.50000       30.9740           0
     15764 MEMB     127      PMPE     O13      O2L     -0.780000       15.9994           0
     15765 MEMB     127      PMPE     O14      O2L     -0.780000       15.9994           0
     15766 MEMB     127      PMPE     O11      OSLP    -0.570000       15.9994           0
     15767 MEMB     127      PMPE     O12      OSLP    -0.570000       15.9994           0
     15768 MEMB     127      PMPE     C1       CTL2    -0.800000E-01   12.0110           0
     15769 MEMB     127      PMPE     HA       HAL2     0.900000E-01   1.00800           0
     15770 MEMB     127      PMPE     HB       HAL2     0.900000E-01   1.00800           0
     15771 MEMB     127      PMPE     C2       CTL1     0.170000       12.0110           0
     15772 MEMB     127      PMPE     HS       HAL1     0.900000E-01   1.00800           0
     15773 MEMB     127      PMPE     O21      OSL     -0.490000       15.9994           0
     15774 MEMB     127      PMPE     C21      CL       0.900000       12.0110           0
     15775 MEMB     127      PMPE     O22      OBL     -0.630000       15.9994           0
     15776 MEMB     127      PMPE     C22      CTL2    -0.220000       12.0110           0
     15777 MEMB     127      PMPE     H2R      HAL2     0.900000E-01   1.00800           0
     15778 MEMB     127      PMPE     H2S      HAL2     0.900000E-01   1.00800           0
     15779 MEMB     127      PMPE     C3       CTL2     0.800000E-01   12.0110           0
     15780 MEMB     127      PMPE     HX       HAL2     0.900000E-01   1.00800           0
     15781 MEMB     127      PMPE     HY       HAL2     0.900000E-01   1.00800           0
     15782 MEMB     127      PMPE     O31      OSL     -0.490000       15.9994           0
     15783 MEMB     127      PMPE     C31      CL       0.900000       12.0110           0
     15784 MEMB     127      PMPE     O32      OBL     -0.630000       15.9994           0
     15785 MEMB     127      PMPE     C32      CTL2    -0.220000       12.0110           0
     15786 MEMB     127      PMPE     H2X      HAL2     0.900000E-01   1.00800           0
     15787 MEMB     127      PMPE     H2Y      HAL2     0.900000E-01   1.00800           0
     15788 MEMB     127      PMPE     C23      CTL2    -0.180000       12.0110           0
     15789 MEMB     127      PMPE     H3R      HAL2     0.900000E-01   1.00800           0
     15790 MEMB     127      PMPE     H3S      HAL2     0.900000E-01   1.00800           0
     15791 MEMB     127      PMPE     C24      CTL2    -0.180000       12.0110           0
     15792 MEMB     127      PMPE     H4R      HAL2     0.900000E-01   1.00800           0
     15793 MEMB     127      PMPE     H4S      HAL2     0.900000E-01   1.00800           0
     15794 MEMB     127      PMPE     C25      CTL2    -0.180000       12.0110           0
     15795 MEMB     127      PMPE     H5R      HAL2     0.900000E-01   1.00800           0
     15796 MEMB     127      PMPE     H5S      HAL2     0.900000E-01   1.00800           0
     15797 MEMB     127      PMPE     C26      CTL2    -0.180000       12.0110           0
     15798 MEMB     127      PMPE     H6R      HAL2     0.900000E-01   1.00800           0
     15799 MEMB     127      PMPE     H6S      HAL2     0.900000E-01   1.00800           0
     15800 MEMB     127      PMPE     C27      CTL2    -0.180000       12.0110           0
     15801 MEMB     127      PMPE     H7R      HAL2     0.900000E-01   1.00800           0
     15802 MEMB     127      PMPE     H7S      HAL2     0.900000E-01   1.00800           0
     15803 MEMB     127      PMPE     C28      CTL2    -0.180000       12.0110           0
     15804 MEMB     127      PMPE     H8R      HAL2     0.900000E-01   1.00800           0
     15805 MEMB     127      PMPE     H8S      HAL2     0.900000E-01   1.00800           0
     15806 MEMB     127      PMPE     C29      CG3RC1  -0.900000E-01   12.0110           0
     15807 MEMB     127      PMPE     H9R      HGA1     0.900000E-01   1.00800           0
     15808 MEMB     127      PMPE     C217     CG3C31  -0.180000       12.0110           0
     15809 MEMB     127      PMPE     H17R     HGA2     0.900000E-01   1.00800           0
     15810 MEMB     127      PMPE     H17S     HGA2     0.900000E-01   1.00800           0
     15811 MEMB     127      PMPE     C210     CG3RC1  -0.900000E-01   12.0110           0
     15812 MEMB     127      PMPE     H10R     HGA1     0.900000E-01   1.00800           0
     15813 MEMB     127      PMPE     C211     CTL2    -0.180000       12.0110           0
     15814 MEMB     127      PMPE     H11R     HAL2     0.900000E-01   1.00800           0
     15815 MEMB     127      PMPE     H11S     HAL2     0.900000E-01   1.00800           0
     15816 MEMB     127      PMPE     C212     CTL2    -0.180000       12.0110           0
     15817 MEMB     127      PMPE     H12R     HAL2     0.900000E-01   1.00800           0
     15818 MEMB     127      PMPE     H12S     HAL2     0.900000E-01   1.00800           0
     15819 MEMB     127      PMPE     C213     CTL2    -0.180000       12.0110           0
     15820 MEMB     127      PMPE     H13R     HAL2     0.900000E-01   1.00800           0
     15821 MEMB     127      PMPE     H13S     HAL2     0.900000E-01   1.00800           0
     15822 MEMB     127      PMPE     C214     CTL2    -0.180000       12.0110           0
     15823 MEMB     127      PMPE     H14R     HAL2     0.900000E-01   1.00800           0
     15824 MEMB     127      PMPE     H14S     HAL2     0.900000E-01   1.00800           0
     15825 MEMB     127      PMPE     C215     CTL2    -0.180000       12.0110           0
     15826 MEMB     127      PMPE     H15R     HAL2     0.900000E-01   1.00800           0
     15827 MEMB     127      PMPE     H15S     HAL2     0.900000E-01   1.00800           0
     15828 MEMB     127      PMPE     C216     CTL3    -0.270000       12.0110           0
     15829 MEMB     127      PMPE     H16R     HAL3     0.900000E-01   1.00800           0
     15830 MEMB     127      PMPE     H16S     HAL3     0.900000E-01   1.00800           0
     15831 MEMB     127      PMPE     H16T     HAL3     0.900000E-01   1.00800           0
     15832 MEMB     127      PMPE     C33      CTL2    -0.180000       12.0110           0
     15833 MEMB     127      PMPE     H3X      HAL2     0.900000E-01   1.00800           0
     15834 MEMB     127      PMPE     H3Y      HAL2     0.900000E-01   1.00800           0
     15835 MEMB     127      PMPE     C34      CTL2    -0.180000       12.0110           0
     15836 MEMB     127      PMPE     H4X      HAL2     0.900000E-01   1.00800           0
     15837 MEMB     127      PMPE     H4Y      HAL2     0.900000E-01   1.00800           0
     15838 MEMB     127      PMPE     C35      CTL2    -0.180000       12.0110           0
     15839 MEMB     127      PMPE     H5X      HAL2     0.900000E-01   1.00800           0
     15840 MEMB     127      PMPE     H5Y      HAL2     0.900000E-01   1.00800           0
     15841 MEMB     127      PMPE     C36      CTL2    -0.180000       12.0110           0
     15842 MEMB     127      PMPE     H6X      HAL2     0.900000E-01   1.00800           0
     15843 MEMB     127      PMPE     H6Y      HAL2     0.900000E-01   1.00800           0
     15844 MEMB     127      PMPE     C37      CTL2    -0.180000       12.0110           0
     15845 MEMB     127      PMPE     H7X      HAL2     0.900000E-01   1.00800           0
     15846 MEMB     127      PMPE     H7Y      HAL2     0.900000E-01   1.00800           0
     15847 MEMB     127      PMPE     C38      CTL2    -0.180000       12.0110           0
     15848 MEMB     127      PMPE     H8X      HAL2     0.900000E-01   1.00800           0
     15849 MEMB     127      PMPE     H8Y      HAL2     0.900000E-01   1.00800           0
     15850 MEMB     127      PMPE     C39      CTL2    -0.180000       12.0110           0
     15851 MEMB     127      PMPE     H9X      HAL2     0.900000E-01   1.00800           0
     15852 MEMB     127      PMPE     H9Y      HAL2     0.900000E-01   1.00800           0
     15853 MEMB     127      PMPE     C310     CTL2    -0.180000       12.0110           0
     15854 MEMB     127      PMPE     H10X     HAL2     0.900000E-01   1.00800           0
     15855 MEMB     127      PMPE     H10Y     HAL2     0.900000E-01   1.00800           0
     15856 MEMB     127      PMPE     C311     CTL2    -0.180000       12.0110           0
     15857 MEMB     127      PMPE     H11X     HAL2     0.900000E-01   1.00800           0
     15858 MEMB     127      PMPE     H11Y     HAL2     0.900000E-01   1.00800           0
     15859 MEMB     127      PMPE     C312     CTL2    -0.180000       12.0110           0
     15860 MEMB     127      PMPE     H12X     HAL2     0.900000E-01   1.00800           0
     15861 MEMB     127      PMPE     H12Y     HAL2     0.900000E-01   1.00800           0
     15862 MEMB     127      PMPE     C313     CTL2    -0.180000       12.0110           0
     15863 MEMB     127      PMPE     H13X     HAL2     0.900000E-01   1.00800           0
     15864 MEMB     127      PMPE     H13Y     HAL2     0.900000E-01   1.00800           0
     15865 MEMB     127      PMPE     C314     CTL2    -0.180000       12.0110           0
     15866 MEMB     127      PMPE     H14X     HAL2     0.900000E-01   1.00800           0
     15867 MEMB     127      PMPE     H14Y     HAL2     0.900000E-01   1.00800           0
     15868 MEMB     127      PMPE     C315     CTL2    -0.180000       12.0110           0
     15869 MEMB     127      PMPE     H15X     HAL2     0.900000E-01   1.00800           0
     15870 MEMB     127      PMPE     H15Y     HAL2     0.900000E-01   1.00800           0
     15871 MEMB     127      PMPE     C316     CTL3    -0.270000       12.0110           0
     15872 MEMB     127      PMPE     H16X     HAL3     0.900000E-01   1.00800           0
     15873 MEMB     127      PMPE     H16Y     HAL3     0.900000E-01   1.00800           0
     15874 MEMB     127      PMPE     H16Z     HAL3     0.900000E-01   1.00800           0
     15875 MEMB     128      POPE     N        NH3L    -0.300000       14.0070           0
     15876 MEMB     128      POPE     HN1      HCL      0.330000       1.00800           0
     15877 MEMB     128      POPE     HN2      HCL      0.330000       1.00800           0
     15878 MEMB     128      POPE     HN3      HCL      0.330000       1.00800           0
     15879 MEMB     128      POPE     C12      CTL2     0.130000       12.0110           0
     15880 MEMB     128      POPE     H12A     HAL2     0.900000E-01   1.00800           0
     15881 MEMB     128      POPE     H12B     HAL2     0.900000E-01   1.00800           0
     15882 MEMB     128      POPE     C11      CTL2    -0.800000E-01   12.0110           0
     15883 MEMB     128      POPE     H11A     HAL2     0.900000E-01   1.00800           0
     15884 MEMB     128      POPE     H11B     HAL2     0.900000E-01   1.00800           0
     15885 MEMB     128      POPE     P        PL        1.50000       30.9740           0
     15886 MEMB     128      POPE     O13      O2L     -0.780000       15.9994           0
     15887 MEMB     128      POPE     O14      O2L     -0.780000       15.9994           0
     15888 MEMB     128      POPE     O11      OSLP    -0.570000       15.9994           0
     15889 MEMB     128      POPE     O12      OSLP    -0.570000       15.9994           0
     15890 MEMB     128      POPE     C1       CTL2    -0.800000E-01   12.0110           0
     15891 MEMB     128      POPE     HA       HAL2     0.900000E-01   1.00800           0
     15892 MEMB     128      POPE     HB       HAL2     0.900000E-01   1.00800           0
     15893 MEMB     128      POPE     C2       CTL1     0.170000       12.0110           0
     15894 MEMB     128      POPE     HS       HAL1     0.900000E-01   1.00800           0
     15895 MEMB     128      POPE     O21      OSL     -0.490000       15.9994           0
     15896 MEMB     128      POPE     C21      CL       0.900000       12.0110           0
     15897 MEMB     128      POPE     O22      OBL     -0.630000       15.9994           0
     15898 MEMB     128      POPE     C22      CTL2    -0.220000       12.0110           0
     15899 MEMB     128      POPE     H2R      HAL2     0.900000E-01   1.00800           0
     15900 MEMB     128      POPE     H2S      HAL2     0.900000E-01   1.00800           0
     15901 MEMB     128      POPE     C3       CTL2     0.800000E-01   12.0110           0
     15902 MEMB     128      POPE     HX       HAL2     0.900000E-01   1.00800           0
     15903 MEMB     128      POPE     HY       HAL2     0.900000E-01   1.00800           0
     15904 MEMB     128      POPE     O31      OSL     -0.490000       15.9994           0
     15905 MEMB     128      POPE     C31      CL       0.900000       12.0110           0
     15906 MEMB     128      POPE     O32      OBL     -0.630000       15.9994           0
     15907 MEMB     128      POPE     C32      CTL2    -0.220000       12.0110           0
     15908 MEMB     128      POPE     H2X      HAL2     0.900000E-01   1.00800           0
     15909 MEMB     128      POPE     H2Y      HAL2     0.900000E-01   1.00800           0
     15910 MEMB     128      POPE     C23      CTL2    -0.180000       12.0110           0
     15911 MEMB     128      POPE     H3R      HAL2     0.900000E-01   1.00800           0
     15912 MEMB     128      POPE     H3S      HAL2     0.900000E-01   1.00800           0
     15913 MEMB     128      POPE     C24      CTL2    -0.180000       12.0110           0
     15914 MEMB     128      POPE     H4R      HAL2     0.900000E-01   1.00800           0
     15915 MEMB     128      POPE     H4S      HAL2     0.900000E-01   1.00800           0
     15916 MEMB     128      POPE     C25      CTL2    -0.180000       12.0110           0
     15917 MEMB     128      POPE     H5R      HAL2     0.900000E-01   1.00800           0
     15918 MEMB     128      POPE     H5S      HAL2     0.900000E-01   1.00800           0
     15919 MEMB     128      POPE     C26      CTL2    -0.180000       12.0110           0
     15920 MEMB     128      POPE     H6R      HAL2     0.900000E-01   1.00800           0
     15921 MEMB     128      POPE     H6S      HAL2     0.900000E-01   1.00800           0
     15922 MEMB     128      POPE     C27      CTL2    -0.180000       12.0110           0
     15923 MEMB     128      POPE     H7R      HAL2     0.900000E-01   1.00800           0
     15924 MEMB     128      POPE     H7S      HAL2     0.900000E-01   1.00800           0
     15925 MEMB     128      POPE     C28      CTL2    -0.180000       12.0110           0
     15926 MEMB     128      POPE     H8R      HAL2     0.900000E-01   1.00800           0
     15927 MEMB     128      POPE     H8S      HAL2     0.900000E-01   1.00800           0
     15928 MEMB     128      POPE     C29      CEL1    -0.150000       12.0110           0
     15929 MEMB     128      POPE     H91      HEL1     0.150000       1.00800           0
     15930 MEMB     128      POPE     C210     CEL1    -0.150000       12.0110           0
     15931 MEMB     128      POPE     H101     HEL1     0.150000       1.00800           0
     15932 MEMB     128      POPE     C211     CTL2    -0.180000       12.0110           0
     15933 MEMB     128      POPE     H11R     HAL2     0.900000E-01   1.00800           0
     15934 MEMB     128      POPE     H11S     HAL2     0.900000E-01   1.00800           0
     15935 MEMB     128      POPE     C212     CTL2    -0.180000       12.0110           0
     15936 MEMB     128      POPE     H12R     HAL2     0.900000E-01   1.00800           0
     15937 MEMB     128      POPE     H12S     HAL2     0.900000E-01   1.00800           0
     15938 MEMB     128      POPE     C213     CTL2    -0.180000       12.0110           0
     15939 MEMB     128      POPE     H13R     HAL2     0.900000E-01   1.00800           0
     15940 MEMB     128      POPE     H13S     HAL2     0.900000E-01   1.00800           0
     15941 MEMB     128      POPE     C214     CTL2    -0.180000       12.0110           0
     15942 MEMB     128      POPE     H14R     HAL2     0.900000E-01   1.00800           0
     15943 MEMB     128      POPE     H14S     HAL2     0.900000E-01   1.00800           0
     15944 MEMB     128      POPE     C215     CTL2    -0.180000       12.0110           0
     15945 MEMB     128      POPE     H15R     HAL2     0.900000E-01   1.00800           0
     15946 MEMB     128      POPE     H15S     HAL2     0.900000E-01   1.00800           0
     15947 MEMB     128      POPE     C216     CTL2    -0.180000       12.0110           0
     15948 MEMB     128      POPE     H16R     HAL2     0.900000E-01   1.00800           0
     15949 MEMB     128      POPE     H16S     HAL2     0.900000E-01   1.00800           0
     15950 MEMB     128      POPE     C217     CTL2    -0.180000       12.0110           0
     15951 MEMB     128      POPE     H17R     HAL2     0.900000E-01   1.00800           0
     15952 MEMB     128      POPE     H17S     HAL2     0.900000E-01   1.00800           0
     15953 MEMB     128      POPE     C218     CTL3    -0.270000       12.0110           0
     15954 MEMB     128      POPE     H18R     HAL3     0.900000E-01   1.00800           0
     15955 MEMB     128      POPE     H18S     HAL3     0.900000E-01   1.00800           0
     15956 MEMB     128      POPE     H18T     HAL3     0.900000E-01   1.00800           0
     15957 MEMB     128      POPE     C33      CTL2    -0.180000       12.0110           0
     15958 MEMB     128      POPE     H3X      HAL2     0.900000E-01   1.00800           0
     15959 MEMB     128      POPE     H3Y      HAL2     0.900000E-01   1.00800           0
     15960 MEMB     128      POPE     C34      CTL2    -0.180000       12.0110           0
     15961 MEMB     128      POPE     H4X      HAL2     0.900000E-01   1.00800           0
     15962 MEMB     128      POPE     H4Y      HAL2     0.900000E-01   1.00800           0
     15963 MEMB     128      POPE     C35      CTL2    -0.180000       12.0110           0
     15964 MEMB     128      POPE     H5X      HAL2     0.900000E-01   1.00800           0
     15965 MEMB     128      POPE     H5Y      HAL2     0.900000E-01   1.00800           0
     15966 MEMB     128      POPE     C36      CTL2    -0.180000       12.0110           0
     15967 MEMB     128      POPE     H6X      HAL2     0.900000E-01   1.00800           0
     15968 MEMB     128      POPE     H6Y      HAL2     0.900000E-01   1.00800           0
     15969 MEMB     128      POPE     C37      CTL2    -0.180000       12.0110           0
     15970 MEMB     128      POPE     H7X      HAL2     0.900000E-01   1.00800           0
     15971 MEMB     128      POPE     H7Y      HAL2     0.900000E-01   1.00800           0
     15972 MEMB     128      POPE     C38      CTL2    -0.180000       12.0110           0
     15973 MEMB     128      POPE     H8X      HAL2     0.900000E-01   1.00800           0
     15974 MEMB     128      POPE     H8Y      HAL2     0.900000E-01   1.00800           0
     15975 MEMB     128      POPE     C39      CTL2    -0.180000       12.0110           0
     15976 MEMB     128      POPE     H9X      HAL2     0.900000E-01   1.00800           0
     15977 MEMB     128      POPE     H9Y      HAL2     0.900000E-01   1.00800           0
     15978 MEMB     128      POPE     C310     CTL2    -0.180000       12.0110           0
     15979 MEMB     128      POPE     H10X     HAL2     0.900000E-01   1.00800           0
     15980 MEMB     128      POPE     H10Y     HAL2     0.900000E-01   1.00800           0
     15981 MEMB     128      POPE     C311     CTL2    -0.180000       12.0110           0
     15982 MEMB     128      POPE     H11X     HAL2     0.900000E-01   1.00800           0
     15983 MEMB     128      POPE     H11Y     HAL2     0.900000E-01   1.00800           0
     15984 MEMB     128      POPE     C312     CTL2    -0.180000       12.0110           0
     15985 MEMB     128      POPE     H12X     HAL2     0.900000E-01   1.00800           0
     15986 MEMB     128      POPE     H12Y     HAL2     0.900000E-01   1.00800           0
     15987 MEMB     128      POPE     C313     CTL2    -0.180000       12.0110           0
     15988 MEMB     128      POPE     H13X     HAL2     0.900000E-01   1.00800           0
     15989 MEMB     128      POPE     H13Y     HAL2     0.900000E-01   1.00800           0
     15990 MEMB     128      POPE     C314     CTL2    -0.180000       12.0110           0
     15991 MEMB     128      POPE     H14X     HAL2     0.900000E-01   1.00800           0
     15992 MEMB     128      POPE     H14Y     HAL2     0.900000E-01   1.00800           0
     15993 MEMB     128      POPE     C315     CTL2    -0.180000       12.0110           0
     15994 MEMB     128      POPE     H15X     HAL2     0.900000E-01   1.00800           0
     15995 MEMB     128      POPE     H15Y     HAL2     0.900000E-01   1.00800           0
     15996 MEMB     128      POPE     C316     CTL3    -0.270000       12.0110           0
     15997 MEMB     128      POPE     H16X     HAL3     0.900000E-01   1.00800           0
     15998 MEMB     128      POPE     H16Y     HAL3     0.900000E-01   1.00800           0
     15999 MEMB     128      POPE     H16Z     HAL3     0.900000E-01   1.00800           0
     16000 MEMB     129      PYPG     C13      CTL2     0.500000E-01   12.0110           0
     16001 MEMB     129      PYPG     H13A     HAL2     0.900000E-01   1.00800           0
     16002 MEMB     129      PYPG     H13B     HAL2     0.900000E-01   1.00800           0
     16003 MEMB     129      PYPG     OC3      OHL     -0.660000       15.9994           0
     16004 MEMB     129      PYPG     HO3      HOL      0.430000       1.00800           0
     16005 MEMB     129      PYPG     C12      CTL1     0.140000       12.0110           0
     16006 MEMB     129      PYPG     H12A     HAL1     0.900000E-01   1.00800           0
     16007 MEMB     129      PYPG     OC2      OHL     -0.660000       15.9994           0
     16008 MEMB     129      PYPG     HO2      HOL      0.430000       1.00800           0
     16009 MEMB     129      PYPG     C11      CTL2    -0.800000E-01   12.0110           0
     16010 MEMB     129      PYPG     H11A     HAL2     0.900000E-01   1.00800           0
     16011 MEMB     129      PYPG     H11B     HAL2     0.900000E-01   1.00800           0
     16012 MEMB     129      PYPG     P        PL        1.50000       30.9740           0
     16013 MEMB     129      PYPG     O13      O2L     -0.780000       15.9994           0
     16014 MEMB     129      PYPG     O14      O2L     -0.780000       15.9994           0
     16015 MEMB     129      PYPG     O11      OSLP    -0.570000       15.9994           0
     16016 MEMB     129      PYPG     O12      OSLP    -0.570000       15.9994           0
     16017 MEMB     129      PYPG     C1       CTL2    -0.800000E-01   12.0110           0
     16018 MEMB     129      PYPG     HA       HAL2     0.900000E-01   1.00800           0
     16019 MEMB     129      PYPG     HB       HAL2     0.900000E-01   1.00800           0
     16020 MEMB     129      PYPG     C2       CTL1     0.170000       12.0110           0
     16021 MEMB     129      PYPG     HS       HAL1     0.900000E-01   1.00800           0
     16022 MEMB     129      PYPG     O21      OSL     -0.490000       15.9994           0
     16023 MEMB     129      PYPG     C21      CL       0.900000       12.0110           0
     16024 MEMB     129      PYPG     O22      OBL     -0.630000       15.9994           0
     16025 MEMB     129      PYPG     C22      CTL2    -0.220000       12.0110           0
     16026 MEMB     129      PYPG     H2R      HAL2     0.900000E-01   1.00800           0
     16027 MEMB     129      PYPG     H2S      HAL2     0.900000E-01   1.00800           0
     16028 MEMB     129      PYPG     C3       CTL2     0.800000E-01   12.0110           0
     16029 MEMB     129      PYPG     HX       HAL2     0.900000E-01   1.00800           0
     16030 MEMB     129      PYPG     HY       HAL2     0.900000E-01   1.00800           0
     16031 MEMB     129      PYPG     O31      OSL     -0.490000       15.9994           0
     16032 MEMB     129      PYPG     C31      CL       0.900000       12.0110           0
     16033 MEMB     129      PYPG     O32      OBL     -0.630000       15.9994           0
     16034 MEMB     129      PYPG     C32      CTL2    -0.220000       12.0110           0
     16035 MEMB     129      PYPG     H2X      HAL2     0.900000E-01   1.00800           0
     16036 MEMB     129      PYPG     H2Y      HAL2     0.900000E-01   1.00800           0
     16037 MEMB     129      PYPG     C23      CTL2    -0.180000       12.0110           0
     16038 MEMB     129      PYPG     H3R      HAL2     0.900000E-01   1.00800           0
     16039 MEMB     129      PYPG     H3S      HAL2     0.900000E-01   1.00800           0
     16040 MEMB     129      PYPG     C24      CTL2    -0.180000       12.0110           0
     16041 MEMB     129      PYPG     H4R      HAL2     0.900000E-01   1.00800           0
     16042 MEMB     129      PYPG     H4S      HAL2     0.900000E-01   1.00800           0
     16043 MEMB     129      PYPG     C25      CTL2    -0.180000       12.0110           0
     16044 MEMB     129      PYPG     H5R      HAL2     0.900000E-01   1.00800           0
     16045 MEMB     129      PYPG     H5S      HAL2     0.900000E-01   1.00800           0
     16046 MEMB     129      PYPG     C26      CTL2    -0.180000       12.0110           0
     16047 MEMB     129      PYPG     H6R      HAL2     0.900000E-01   1.00800           0
     16048 MEMB     129      PYPG     H6S      HAL2     0.900000E-01   1.00800           0
     16049 MEMB     129      PYPG     C27      CTL2    -0.180000       12.0110           0
     16050 MEMB     129      PYPG     H7R      HAL2     0.900000E-01   1.00800           0
     16051 MEMB     129      PYPG     H7S      HAL2     0.900000E-01   1.00800           0
     16052 MEMB     129      PYPG     C28      CTL2    -0.180000       12.0110           0
     16053 MEMB     129      PYPG     H8R      HAL2     0.900000E-01   1.00800           0
     16054 MEMB     129      PYPG     H8S      HAL2     0.900000E-01   1.00800           0
     16055 MEMB     129      PYPG     C29      CEL1    -0.150000       12.0110           0
     16056 MEMB     129      PYPG     H9R      HEL1     0.150000       1.00800           0
     16057 MEMB     129      PYPG     C210     CEL1    -0.150000       12.0110           0
     16058 MEMB     129      PYPG     H10R     HEL1     0.150000       1.00800           0
     16059 MEMB     129      PYPG     C211     CTL2    -0.180000       12.0110           0
     16060 MEMB     129      PYPG     H11R     HAL2     0.900000E-01   1.00800           0
     16061 MEMB     129      PYPG     H11S     HAL2     0.900000E-01   1.00800           0
     16062 MEMB     129      PYPG     C212     CTL2    -0.180000       12.0110           0
     16063 MEMB     129      PYPG     H12R     HAL2     0.900000E-01   1.00800           0
     16064 MEMB     129      PYPG     H12S     HAL2     0.900000E-01   1.00800           0
     16065 MEMB     129      PYPG     C213     CTL2    -0.180000       12.0110           0
     16066 MEMB     129      PYPG     H13R     HAL2     0.900000E-01   1.00800           0
     16067 MEMB     129      PYPG     H13S     HAL2     0.900000E-01   1.00800           0
     16068 MEMB     129      PYPG     C214     CTL2    -0.180000       12.0110           0
     16069 MEMB     129      PYPG     H14R     HAL2     0.900000E-01   1.00800           0
     16070 MEMB     129      PYPG     H14S     HAL2     0.900000E-01   1.00800           0
     16071 MEMB     129      PYPG     C215     CTL2    -0.180000       12.0110           0
     16072 MEMB     129      PYPG     H15R     HAL2     0.900000E-01   1.00800           0
     16073 MEMB     129      PYPG     H15S     HAL2     0.900000E-01   1.00800           0
     16074 MEMB     129      PYPG     C216     CTL3    -0.270000       12.0110           0
     16075 MEMB     129      PYPG     H16R     HAL3     0.900000E-01   1.00800           0
     16076 MEMB     129      PYPG     H16S     HAL3     0.900000E-01   1.00800           0
     16077 MEMB     129      PYPG     H16T     HAL3     0.900000E-01   1.00800           0
     16078 MEMB     129      PYPG     C33      CTL2    -0.180000       12.0110           0
     16079 MEMB     129      PYPG     H3X      HAL2     0.900000E-01   1.00800           0
     16080 MEMB     129      PYPG     H3Y      HAL2     0.900000E-01   1.00800           0
     16081 MEMB     129      PYPG     C34      CTL2    -0.180000       12.0110           0
     16082 MEMB     129      PYPG     H4X      HAL2     0.900000E-01   1.00800           0
     16083 MEMB     129      PYPG     H4Y      HAL2     0.900000E-01   1.00800           0
     16084 MEMB     129      PYPG     C35      CTL2    -0.180000       12.0110           0
     16085 MEMB     129      PYPG     H5X      HAL2     0.900000E-01   1.00800           0
     16086 MEMB     129      PYPG     H5Y      HAL2     0.900000E-01   1.00800           0
     16087 MEMB     129      PYPG     C36      CTL2    -0.180000       12.0110           0
     16088 MEMB     129      PYPG     H6X      HAL2     0.900000E-01   1.00800           0
     16089 MEMB     129      PYPG     H6Y      HAL2     0.900000E-01   1.00800           0
     16090 MEMB     129      PYPG     C37      CTL2    -0.180000       12.0110           0
     16091 MEMB     129      PYPG     H7X      HAL2     0.900000E-01   1.00800           0
     16092 MEMB     129      PYPG     H7Y      HAL2     0.900000E-01   1.00800           0
     16093 MEMB     129      PYPG     C38      CTL2    -0.180000       12.0110           0
     16094 MEMB     129      PYPG     H8X      HAL2     0.900000E-01   1.00800           0
     16095 MEMB     129      PYPG     H8Y      HAL2     0.900000E-01   1.00800           0
     16096 MEMB     129      PYPG     C39      CTL2    -0.180000       12.0110           0
     16097 MEMB     129      PYPG     H9X      HAL2     0.900000E-01   1.00800           0
     16098 MEMB     129      PYPG     H9Y      HAL2     0.900000E-01   1.00800           0
     16099 MEMB     129      PYPG     C310     CTL2    -0.180000       12.0110           0
     16100 MEMB     129      PYPG     H10X     HAL2     0.900000E-01   1.00800           0
     16101 MEMB     129      PYPG     H10Y     HAL2     0.900000E-01   1.00800           0
     16102 MEMB     129      PYPG     C311     CTL2    -0.180000       12.0110           0
     16103 MEMB     129      PYPG     H11X     HAL2     0.900000E-01   1.00800           0
     16104 MEMB     129      PYPG     H11Y     HAL2     0.900000E-01   1.00800           0
     16105 MEMB     129      PYPG     C312     CTL2    -0.180000       12.0110           0
     16106 MEMB     129      PYPG     H12X     HAL2     0.900000E-01   1.00800           0
     16107 MEMB     129      PYPG     H12Y     HAL2     0.900000E-01   1.00800           0
     16108 MEMB     129      PYPG     C313     CTL2    -0.180000       12.0110           0
     16109 MEMB     129      PYPG     H13X     HAL2     0.900000E-01   1.00800           0
     16110 MEMB     129      PYPG     H13Y     HAL2     0.900000E-01   1.00800           0
     16111 MEMB     129      PYPG     C314     CTL2    -0.180000       12.0110           0
     16112 MEMB     129      PYPG     H14X     HAL2     0.900000E-01   1.00800           0
     16113 MEMB     129      PYPG     H14Y     HAL2     0.900000E-01   1.00800           0
     16114 MEMB     129      PYPG     C315     CTL2    -0.180000       12.0110           0
     16115 MEMB     129      PYPG     H15X     HAL2     0.900000E-01   1.00800           0
     16116 MEMB     129      PYPG     H15Y     HAL2     0.900000E-01   1.00800           0
     16117 MEMB     129      PYPG     C316     CTL3    -0.270000       12.0110           0
     16118 MEMB     129      PYPG     H16X     HAL3     0.900000E-01   1.00800           0
     16119 MEMB     129      PYPG     H16Y     HAL3     0.900000E-01   1.00800           0
     16120 MEMB     129      PYPG     H16Z     HAL3     0.900000E-01   1.00800           0
     16121 MEMB     130      PVCL2    C3       CTL2    -0.800000E-01   12.0110           0
     16122 MEMB     130      PVCL2    HG31     HAL2     0.900000E-01   1.00800           0
     16123 MEMB     130      PVCL2    HG32     HAL2     0.900000E-01   1.00800           0
     16124 MEMB     130      PVCL2    P3       PL        1.50000       30.9740           0
     16125 MEMB     130      PVCL2    OP33     O2L     -0.780000       15.9994           0
     16126 MEMB     130      PVCL2    OP34     O2L     -0.780000       15.9994           0
     16127 MEMB     130      PVCL2    OP31     OSLP    -0.570000       15.9994           0
     16128 MEMB     130      PVCL2    OP32     OSLP    -0.570000       15.9994           0
     16129 MEMB     130      PVCL2    C31      CTL2    -0.800000E-01   12.0110           0
     16130 MEMB     130      PVCL2    H31J     HAL2     0.900000E-01   1.00800           0
     16131 MEMB     130      PVCL2    H31K     HAL2     0.900000E-01   1.00800           0
     16132 MEMB     130      PVCL2    C2       CTL1     0.140000       12.0110           0
     16133 MEMB     130      PVCL2    HG22     HAL1     0.900000E-01   1.00800           0
     16134 MEMB     130      PVCL2    OG12     OHL     -0.650000       15.9994           0
     16135 MEMB     130      PVCL2    HO12     HOL      0.420000       1.00800           0
     16136 MEMB     130      PVCL2    C1       CTL2    -0.800000E-01   12.0110           0
     16137 MEMB     130      PVCL2    HG11     HAL2     0.900000E-01   1.00800           0
     16138 MEMB     130      PVCL2    HG12     HAL2     0.900000E-01   1.00800           0
     16139 MEMB     130      PVCL2    P1       PL        1.50000       30.9740           0
     16140 MEMB     130      PVCL2    OP13     O2L     -0.780000       15.9994           0
     16141 MEMB     130      PVCL2    OP14     O2L     -0.780000       15.9994           0
     16142 MEMB     130      PVCL2    OP11     OSLP    -0.570000       15.9994           0
     16143 MEMB     130      PVCL2    OP12     OSLP    -0.570000       15.9994           0
     16144 MEMB     130      PVCL2    C11      CTL2    -0.800000E-01   12.0110           0
     16145 MEMB     130      PVCL2    H11J     HAL2     0.900000E-01   1.00800           0
     16146 MEMB     130      PVCL2    H11K     HAL2     0.900000E-01   1.00800           0
     16147 MEMB     130      PVCL2    C12      CTL1     0.170000       12.0110           0
     16148 MEMB     130      PVCL2    H12J     HAL1     0.900000E-01   1.00800           0
     16149 MEMB     130      PVCL2    O12      OSL     -0.490000       15.9994           0
     16150 MEMB     130      PVCL2    CA1      CL       0.900000       12.0110           0
     16151 MEMB     130      PVCL2    OA1      OBL     -0.630000       15.9994           0
     16152 MEMB     130      PVCL2    CA2      CTL2    -0.220000       12.0110           0
     16153 MEMB     130      PVCL2    H2A      HAL2     0.900000E-01   1.00800           0
     16154 MEMB     130      PVCL2    H2B      HAL2     0.900000E-01   1.00800           0
     16155 MEMB     130      PVCL2    C13      CTL2     0.800000E-01   12.0110           0
     16156 MEMB     130      PVCL2    H13J     HAL2     0.900000E-01   1.00800           0
     16157 MEMB     130      PVCL2    H13K     HAL2     0.900000E-01   1.00800           0
     16158 MEMB     130      PVCL2    O13      OSL     -0.490000       15.9994           0
     16159 MEMB     130      PVCL2    CB1      CL       0.900000       12.0110           0
     16160 MEMB     130      PVCL2    OB1      OBL     -0.630000       15.9994           0
     16161 MEMB     130      PVCL2    CB2      CTL2    -0.220000       12.0110           0
     16162 MEMB     130      PVCL2    H2D      HAL2     0.900000E-01   1.00800           0
     16163 MEMB     130      PVCL2    H2E      HAL2     0.900000E-01   1.00800           0
     16164 MEMB     130      PVCL2    C32      CTL1     0.170000       12.0110           0
     16165 MEMB     130      PVCL2    H32J     HAL1     0.900000E-01   1.00800           0
     16166 MEMB     130      PVCL2    O32      OSL     -0.490000       15.9994           0
     16167 MEMB     130      PVCL2    CC1      CL       0.900000       12.0110           0
     16168 MEMB     130      PVCL2    OC1      OBL     -0.630000       15.9994           0
     16169 MEMB     130      PVCL2    CC2      CTL2    -0.220000       12.0110           0
     16170 MEMB     130      PVCL2    H2R      HAL2     0.900000E-01   1.00800           0
     16171 MEMB     130      PVCL2    H2S      HAL2     0.900000E-01   1.00800           0
     16172 MEMB     130      PVCL2    C33      CTL2     0.800000E-01   12.0110           0
     16173 MEMB     130      PVCL2    H33J     HAL2     0.900000E-01   1.00800           0
     16174 MEMB     130      PVCL2    H33K     HAL2     0.900000E-01   1.00800           0
     16175 MEMB     130      PVCL2    O33      OSL     -0.490000       15.9994           0
     16176 MEMB     130      PVCL2    CD1      CL       0.900000       12.0110           0
     16177 MEMB     130      PVCL2    OD1      OBL     -0.630000       15.9994           0
     16178 MEMB     130      PVCL2    CD2      CTL2    -0.220000       12.0110           0
     16179 MEMB     130      PVCL2    H2X      HAL2     0.900000E-01   1.00800           0
     16180 MEMB     130      PVCL2    H2Y      HAL2     0.900000E-01   1.00800           0
     16181 MEMB     130      PVCL2    CA3      CTL2    -0.180000       12.0110           0
     16182 MEMB     130      PVCL2    H3A      HAL2     0.900000E-01   1.00800           0
     16183 MEMB     130      PVCL2    H3B      HAL2     0.900000E-01   1.00800           0
     16184 MEMB     130      PVCL2    CA4      CTL2    -0.180000       12.0110           0
     16185 MEMB     130      PVCL2    H4A      HAL2     0.900000E-01   1.00800           0
     16186 MEMB     130      PVCL2    H4B      HAL2     0.900000E-01   1.00800           0
     16187 MEMB     130      PVCL2    CA5      CTL2    -0.180000       12.0110           0
     16188 MEMB     130      PVCL2    H5A      HAL2     0.900000E-01   1.00800           0
     16189 MEMB     130      PVCL2    H5B      HAL2     0.900000E-01   1.00800           0
     16190 MEMB     130      PVCL2    CA6      CTL2    -0.180000       12.0110           0
     16191 MEMB     130      PVCL2    H6A      HAL2     0.900000E-01   1.00800           0
     16192 MEMB     130      PVCL2    H6B      HAL2     0.900000E-01   1.00800           0
     16193 MEMB     130      PVCL2    CA7      CTL2    -0.180000       12.0110           0
     16194 MEMB     130      PVCL2    H7A      HAL2     0.900000E-01   1.00800           0
     16195 MEMB     130      PVCL2    H7B      HAL2     0.900000E-01   1.00800           0
     16196 MEMB     130      PVCL2    CA8      CTL2    -0.180000       12.0110           0
     16197 MEMB     130      PVCL2    H8A      HAL2     0.900000E-01   1.00800           0
     16198 MEMB     130      PVCL2    H8B      HAL2     0.900000E-01   1.00800           0
     16199 MEMB     130      PVCL2    CA9      CTL2    -0.180000       12.0110           0
     16200 MEMB     130      PVCL2    H9A      HAL2     0.900000E-01   1.00800           0
     16201 MEMB     130      PVCL2    H9B      HAL2     0.900000E-01   1.00800           0
     16202 MEMB     130      PVCL2    CA10     CTL2    -0.180000       12.0110           0
     16203 MEMB     130      PVCL2    H10A     HAL2     0.900000E-01   1.00800           0
     16204 MEMB     130      PVCL2    H10B     HAL2     0.900000E-01   1.00800           0
     16205 MEMB     130      PVCL2    CA11     CEL1    -0.150000       12.0110           0
     16206 MEMB     130      PVCL2    H11A     HEL1     0.150000       1.00800           0
     16207 MEMB     130      PVCL2    CA12     CEL1    -0.150000       12.0110           0
     16208 MEMB     130      PVCL2    H12A     HEL1     0.150000       1.00800           0
     16209 MEMB     130      PVCL2    CA13     CTL2    -0.180000       12.0110           0
     16210 MEMB     130      PVCL2    H13A     HAL2     0.900000E-01   1.00800           0
     16211 MEMB     130      PVCL2    H13B     HAL2     0.900000E-01   1.00800           0
     16212 MEMB     130      PVCL2    CA14     CTL2    -0.180000       12.0110           0
     16213 MEMB     130      PVCL2    H14A     HAL2     0.900000E-01   1.00800           0
     16214 MEMB     130      PVCL2    H14B     HAL2     0.900000E-01   1.00800           0
     16215 MEMB     130      PVCL2    CA15     CTL2    -0.180000       12.0110           0
     16216 MEMB     130      PVCL2    H15A     HAL2     0.900000E-01   1.00800           0
     16217 MEMB     130      PVCL2    H15B     HAL2     0.900000E-01   1.00800           0
     16218 MEMB     130      PVCL2    CA16     CTL2    -0.180000       12.0110           0
     16219 MEMB     130      PVCL2    H16A     HAL2     0.900000E-01   1.00800           0
     16220 MEMB     130      PVCL2    H16B     HAL2     0.900000E-01   1.00800           0
     16221 MEMB     130      PVCL2    CA17     CTL2    -0.180000       12.0110           0
     16222 MEMB     130      PVCL2    H17A     HAL2     0.900000E-01   1.00800           0
     16223 MEMB     130      PVCL2    H17B     HAL2     0.900000E-01   1.00800           0
     16224 MEMB     130      PVCL2    CA18     CTL3    -0.270000       12.0110           0
     16225 MEMB     130      PVCL2    H18A     HAL3     0.900000E-01   1.00800           0
     16226 MEMB     130      PVCL2    H18B     HAL3     0.900000E-01   1.00800           0
     16227 MEMB     130      PVCL2    H18C     HAL3     0.900000E-01   1.00800           0
     16228 MEMB     130      PVCL2    CB3      CTL2    -0.180000       12.0110           0
     16229 MEMB     130      PVCL2    H3D      HAL2     0.900000E-01   1.00800           0
     16230 MEMB     130      PVCL2    H3E      HAL2     0.900000E-01   1.00800           0
     16231 MEMB     130      PVCL2    CB4      CTL2    -0.180000       12.0110           0
     16232 MEMB     130      PVCL2    H4D      HAL2     0.900000E-01   1.00800           0
     16233 MEMB     130      PVCL2    H4E      HAL2     0.900000E-01   1.00800           0
     16234 MEMB     130      PVCL2    CB5      CTL2    -0.180000       12.0110           0
     16235 MEMB     130      PVCL2    H5D      HAL2     0.900000E-01   1.00800           0
     16236 MEMB     130      PVCL2    H5E      HAL2     0.900000E-01   1.00800           0
     16237 MEMB     130      PVCL2    CB6      CTL2    -0.180000       12.0110           0
     16238 MEMB     130      PVCL2    H6D      HAL2     0.900000E-01   1.00800           0
     16239 MEMB     130      PVCL2    H6E      HAL2     0.900000E-01   1.00800           0
     16240 MEMB     130      PVCL2    CB7      CTL2    -0.180000       12.0110           0
     16241 MEMB     130      PVCL2    H7D      HAL2     0.900000E-01   1.00800           0
     16242 MEMB     130      PVCL2    H7E      HAL2     0.900000E-01   1.00800           0
     16243 MEMB     130      PVCL2    CB8      CTL2    -0.180000       12.0110           0
     16244 MEMB     130      PVCL2    H8D      HAL2     0.900000E-01   1.00800           0
     16245 MEMB     130      PVCL2    H8E      HAL2     0.900000E-01   1.00800           0
     16246 MEMB     130      PVCL2    CB9      CTL2    -0.180000       12.0110           0
     16247 MEMB     130      PVCL2    H9D      HAL2     0.900000E-01   1.00800           0
     16248 MEMB     130      PVCL2    H9E      HAL2     0.900000E-01   1.00800           0
     16249 MEMB     130      PVCL2    CB10     CTL2    -0.180000       12.0110           0
     16250 MEMB     130      PVCL2    H10D     HAL2     0.900000E-01   1.00800           0
     16251 MEMB     130      PVCL2    H10E     HAL2     0.900000E-01   1.00800           0
     16252 MEMB     130      PVCL2    CB11     CTL2    -0.180000       12.0110           0
     16253 MEMB     130      PVCL2    H11D     HAL2     0.900000E-01   1.00800           0
     16254 MEMB     130      PVCL2    H11E     HAL2     0.900000E-01   1.00800           0
     16255 MEMB     130      PVCL2    CB12     CTL2    -0.180000       12.0110           0
     16256 MEMB     130      PVCL2    H12D     HAL2     0.900000E-01   1.00800           0
     16257 MEMB     130      PVCL2    H12E     HAL2     0.900000E-01   1.00800           0
     16258 MEMB     130      PVCL2    CB13     CTL2    -0.180000       12.0110           0
     16259 MEMB     130      PVCL2    H13D     HAL2     0.900000E-01   1.00800           0
     16260 MEMB     130      PVCL2    H13E     HAL2     0.900000E-01   1.00800           0
     16261 MEMB     130      PVCL2    CB14     CTL2    -0.180000       12.0110           0
     16262 MEMB     130      PVCL2    H14D     HAL2     0.900000E-01   1.00800           0
     16263 MEMB     130      PVCL2    H14E     HAL2     0.900000E-01   1.00800           0
     16264 MEMB     130      PVCL2    CB15     CTL2    -0.180000       12.0110           0
     16265 MEMB     130      PVCL2    H15D     HAL2     0.900000E-01   1.00800           0
     16266 MEMB     130      PVCL2    H15E     HAL2     0.900000E-01   1.00800           0
     16267 MEMB     130      PVCL2    CB16     CTL3    -0.270000       12.0110           0
     16268 MEMB     130      PVCL2    H16D     HAL3     0.900000E-01   1.00800           0
     16269 MEMB     130      PVCL2    H16E     HAL3     0.900000E-01   1.00800           0
     16270 MEMB     130      PVCL2    H16F     HAL3     0.900000E-01   1.00800           0
     16271 MEMB     130      PVCL2    CC3      CTL2    -0.180000       12.0110           0
     16272 MEMB     130      PVCL2    H3R      HAL2     0.900000E-01   1.00800           0
     16273 MEMB     130      PVCL2    H3S      HAL2     0.900000E-01   1.00800           0
     16274 MEMB     130      PVCL2    CC4      CTL2    -0.180000       12.0110           0
     16275 MEMB     130      PVCL2    H4R      HAL2     0.900000E-01   1.00800           0
     16276 MEMB     130      PVCL2    H4S      HAL2     0.900000E-01   1.00800           0
     16277 MEMB     130      PVCL2    CC5      CTL2    -0.180000       12.0110           0
     16278 MEMB     130      PVCL2    H5R      HAL2     0.900000E-01   1.00800           0
     16279 MEMB     130      PVCL2    H5S      HAL2     0.900000E-01   1.00800           0
     16280 MEMB     130      PVCL2    CC6      CTL2    -0.180000       12.0110           0
     16281 MEMB     130      PVCL2    H6R      HAL2     0.900000E-01   1.00800           0
     16282 MEMB     130      PVCL2    H6S      HAL2     0.900000E-01   1.00800           0
     16283 MEMB     130      PVCL2    CC7      CTL2    -0.180000       12.0110           0
     16284 MEMB     130      PVCL2    H7R      HAL2     0.900000E-01   1.00800           0
     16285 MEMB     130      PVCL2    H7S      HAL2     0.900000E-01   1.00800           0
     16286 MEMB     130      PVCL2    CC8      CTL2    -0.180000       12.0110           0
     16287 MEMB     130      PVCL2    H8R      HAL2     0.900000E-01   1.00800           0
     16288 MEMB     130      PVCL2    H8S      HAL2     0.900000E-01   1.00800           0
     16289 MEMB     130      PVCL2    CC9      CTL2    -0.180000       12.0110           0
     16290 MEMB     130      PVCL2    H9R      HAL2     0.900000E-01   1.00800           0
     16291 MEMB     130      PVCL2    H9S      HAL2     0.900000E-01   1.00800           0
     16292 MEMB     130      PVCL2    CC10     CTL2    -0.180000       12.0110           0
     16293 MEMB     130      PVCL2    H10R     HAL2     0.900000E-01   1.00800           0
     16294 MEMB     130      PVCL2    H10S     HAL2     0.900000E-01   1.00800           0
     16295 MEMB     130      PVCL2    CC11     CEL1    -0.150000       12.0110           0
     16296 MEMB     130      PVCL2    H11R     HEL1     0.150000       1.00800           0
     16297 MEMB     130      PVCL2    CC12     CEL1    -0.150000       12.0110           0
     16298 MEMB     130      PVCL2    H12R     HEL1     0.150000       1.00800           0
     16299 MEMB     130      PVCL2    CC13     CTL2    -0.180000       12.0110           0
     16300 MEMB     130      PVCL2    H13R     HAL2     0.900000E-01   1.00800           0
     16301 MEMB     130      PVCL2    H13S     HAL2     0.900000E-01   1.00800           0
     16302 MEMB     130      PVCL2    CC14     CTL2    -0.180000       12.0110           0
     16303 MEMB     130      PVCL2    H14R     HAL2     0.900000E-01   1.00800           0
     16304 MEMB     130      PVCL2    H14S     HAL2     0.900000E-01   1.00800           0
     16305 MEMB     130      PVCL2    CC15     CTL2    -0.180000       12.0110           0
     16306 MEMB     130      PVCL2    H15R     HAL2     0.900000E-01   1.00800           0
     16307 MEMB     130      PVCL2    H15S     HAL2     0.900000E-01   1.00800           0
     16308 MEMB     130      PVCL2    CC16     CTL2    -0.180000       12.0110           0
     16309 MEMB     130      PVCL2    H16R     HAL2     0.900000E-01   1.00800           0
     16310 MEMB     130      PVCL2    H16S     HAL2     0.900000E-01   1.00800           0
     16311 MEMB     130      PVCL2    CC17     CTL2    -0.180000       12.0110           0
     16312 MEMB     130      PVCL2    H17R     HAL2     0.900000E-01   1.00800           0
     16313 MEMB     130      PVCL2    H17S     HAL2     0.900000E-01   1.00800           0
     16314 MEMB     130      PVCL2    CC18     CTL3    -0.270000       12.0110           0
     16315 MEMB     130      PVCL2    H18R     HAL3     0.900000E-01   1.00800           0
     16316 MEMB     130      PVCL2    H18S     HAL3     0.900000E-01   1.00800           0
     16317 MEMB     130      PVCL2    H18T     HAL3     0.900000E-01   1.00800           0
     16318 MEMB     130      PVCL2    CD3      CTL2    -0.180000       12.0110           0
     16319 MEMB     130      PVCL2    H3X      HAL2     0.900000E-01   1.00800           0
     16320 MEMB     130      PVCL2    H3Y      HAL2     0.900000E-01   1.00800           0
     16321 MEMB     130      PVCL2    CD4      CTL2    -0.180000       12.0110           0
     16322 MEMB     130      PVCL2    H4X      HAL2     0.900000E-01   1.00800           0
     16323 MEMB     130      PVCL2    H4Y      HAL2     0.900000E-01   1.00800           0
     16324 MEMB     130      PVCL2    CD5      CTL2    -0.180000       12.0110           0
     16325 MEMB     130      PVCL2    H5X      HAL2     0.900000E-01   1.00800           0
     16326 MEMB     130      PVCL2    H5Y      HAL2     0.900000E-01   1.00800           0
     16327 MEMB     130      PVCL2    CD6      CTL2    -0.180000       12.0110           0
     16328 MEMB     130      PVCL2    H6X      HAL2     0.900000E-01   1.00800           0
     16329 MEMB     130      PVCL2    H6Y      HAL2     0.900000E-01   1.00800           0
     16330 MEMB     130      PVCL2    CD7      CTL2    -0.180000       12.0110           0
     16331 MEMB     130      PVCL2    H7X      HAL2     0.900000E-01   1.00800           0
     16332 MEMB     130      PVCL2    H7Y      HAL2     0.900000E-01   1.00800           0
     16333 MEMB     130      PVCL2    CD8      CTL2    -0.180000       12.0110           0
     16334 MEMB     130      PVCL2    H8X      HAL2     0.900000E-01   1.00800           0
     16335 MEMB     130      PVCL2    H8Y      HAL2     0.900000E-01   1.00800           0
     16336 MEMB     130      PVCL2    CD9      CTL2    -0.180000       12.0110           0
     16337 MEMB     130      PVCL2    H9X      HAL2     0.900000E-01   1.00800           0
     16338 MEMB     130      PVCL2    H9Y      HAL2     0.900000E-01   1.00800           0
     16339 MEMB     130      PVCL2    CD10     CTL2    -0.180000       12.0110           0
     16340 MEMB     130      PVCL2    H10X     HAL2     0.900000E-01   1.00800           0
     16341 MEMB     130      PVCL2    H10Y     HAL2     0.900000E-01   1.00800           0
     16342 MEMB     130      PVCL2    CD11     CTL2    -0.180000       12.0110           0
     16343 MEMB     130      PVCL2    H11X     HAL2     0.900000E-01   1.00800           0
     16344 MEMB     130      PVCL2    H11Y     HAL2     0.900000E-01   1.00800           0
     16345 MEMB     130      PVCL2    CD12     CTL2    -0.180000       12.0110           0
     16346 MEMB     130      PVCL2    H12X     HAL2     0.900000E-01   1.00800           0
     16347 MEMB     130      PVCL2    H12Y     HAL2     0.900000E-01   1.00800           0
     16348 MEMB     130      PVCL2    CD13     CTL2    -0.180000       12.0110           0
     16349 MEMB     130      PVCL2    H13X     HAL2     0.900000E-01   1.00800           0
     16350 MEMB     130      PVCL2    H13Y     HAL2     0.900000E-01   1.00800           0
     16351 MEMB     130      PVCL2    CD14     CTL2    -0.180000       12.0110           0
     16352 MEMB     130      PVCL2    H14X     HAL2     0.900000E-01   1.00800           0
     16353 MEMB     130      PVCL2    H14Y     HAL2     0.900000E-01   1.00800           0
     16354 MEMB     130      PVCL2    CD15     CTL2    -0.180000       12.0110           0
     16355 MEMB     130      PVCL2    H15X     HAL2     0.900000E-01   1.00800           0
     16356 MEMB     130      PVCL2    H15Y     HAL2     0.900000E-01   1.00800           0
     16357 MEMB     130      PVCL2    CD16     CTL3    -0.270000       12.0110           0
     16358 MEMB     130      PVCL2    H16X     HAL3     0.900000E-01   1.00800           0
     16359 MEMB     130      PVCL2    H16Y     HAL3     0.900000E-01   1.00800           0
     16360 MEMB     130      PVCL2    H16Z     HAL3     0.900000E-01   1.00800           0
     16361 MEMB     131      PMPE     N        NH3L    -0.300000       14.0070           0
     16362 MEMB     131      PMPE     HN1      HCL      0.330000       1.00800           0
     16363 MEMB     131      PMPE     HN2      HCL      0.330000       1.00800           0
     16364 MEMB     131      PMPE     HN3      HCL      0.330000       1.00800           0
     16365 MEMB     131      PMPE     C12      CTL2     0.130000       12.0110           0
     16366 MEMB     131      PMPE     H12A     HAL2     0.900000E-01   1.00800           0
     16367 MEMB     131      PMPE     H12B     HAL2     0.900000E-01   1.00800           0
     16368 MEMB     131      PMPE     C11      CTL2    -0.800000E-01   12.0110           0
     16369 MEMB     131      PMPE     H11A     HAL2     0.900000E-01   1.00800           0
     16370 MEMB     131      PMPE     H11B     HAL2     0.900000E-01   1.00800           0
     16371 MEMB     131      PMPE     P        PL        1.50000       30.9740           0
     16372 MEMB     131      PMPE     O13      O2L     -0.780000       15.9994           0
     16373 MEMB     131      PMPE     O14      O2L     -0.780000       15.9994           0
     16374 MEMB     131      PMPE     O11      OSLP    -0.570000       15.9994           0
     16375 MEMB     131      PMPE     O12      OSLP    -0.570000       15.9994           0
     16376 MEMB     131      PMPE     C1       CTL2    -0.800000E-01   12.0110           0
     16377 MEMB     131      PMPE     HA       HAL2     0.900000E-01   1.00800           0
     16378 MEMB     131      PMPE     HB       HAL2     0.900000E-01   1.00800           0
     16379 MEMB     131      PMPE     C2       CTL1     0.170000       12.0110           0
     16380 MEMB     131      PMPE     HS       HAL1     0.900000E-01   1.00800           0
     16381 MEMB     131      PMPE     O21      OSL     -0.490000       15.9994           0
     16382 MEMB     131      PMPE     C21      CL       0.900000       12.0110           0
     16383 MEMB     131      PMPE     O22      OBL     -0.630000       15.9994           0
     16384 MEMB     131      PMPE     C22      CTL2    -0.220000       12.0110           0
     16385 MEMB     131      PMPE     H2R      HAL2     0.900000E-01   1.00800           0
     16386 MEMB     131      PMPE     H2S      HAL2     0.900000E-01   1.00800           0
     16387 MEMB     131      PMPE     C3       CTL2     0.800000E-01   12.0110           0
     16388 MEMB     131      PMPE     HX       HAL2     0.900000E-01   1.00800           0
     16389 MEMB     131      PMPE     HY       HAL2     0.900000E-01   1.00800           0
     16390 MEMB     131      PMPE     O31      OSL     -0.490000       15.9994           0
     16391 MEMB     131      PMPE     C31      CL       0.900000       12.0110           0
     16392 MEMB     131      PMPE     O32      OBL     -0.630000       15.9994           0
     16393 MEMB     131      PMPE     C32      CTL2    -0.220000       12.0110           0
     16394 MEMB     131      PMPE     H2X      HAL2     0.900000E-01   1.00800           0
     16395 MEMB     131      PMPE     H2Y      HAL2     0.900000E-01   1.00800           0
     16396 MEMB     131      PMPE     C23      CTL2    -0.180000       12.0110           0
     16397 MEMB     131      PMPE     H3R      HAL2     0.900000E-01   1.00800           0
     16398 MEMB     131      PMPE     H3S      HAL2     0.900000E-01   1.00800           0
     16399 MEMB     131      PMPE     C24      CTL2    -0.180000       12.0110           0
     16400 MEMB     131      PMPE     H4R      HAL2     0.900000E-01   1.00800           0
     16401 MEMB     131      PMPE     H4S      HAL2     0.900000E-01   1.00800           0
     16402 MEMB     131      PMPE     C25      CTL2    -0.180000       12.0110           0
     16403 MEMB     131      PMPE     H5R      HAL2     0.900000E-01   1.00800           0
     16404 MEMB     131      PMPE     H5S      HAL2     0.900000E-01   1.00800           0
     16405 MEMB     131      PMPE     C26      CTL2    -0.180000       12.0110           0
     16406 MEMB     131      PMPE     H6R      HAL2     0.900000E-01   1.00800           0
     16407 MEMB     131      PMPE     H6S      HAL2     0.900000E-01   1.00800           0
     16408 MEMB     131      PMPE     C27      CTL2    -0.180000       12.0110           0
     16409 MEMB     131      PMPE     H7R      HAL2     0.900000E-01   1.00800           0
     16410 MEMB     131      PMPE     H7S      HAL2     0.900000E-01   1.00800           0
     16411 MEMB     131      PMPE     C28      CTL2    -0.180000       12.0110           0
     16412 MEMB     131      PMPE     H8R      HAL2     0.900000E-01   1.00800           0
     16413 MEMB     131      PMPE     H8S      HAL2     0.900000E-01   1.00800           0
     16414 MEMB     131      PMPE     C29      CG3RC1  -0.900000E-01   12.0110           0
     16415 MEMB     131      PMPE     H9R      HGA1     0.900000E-01   1.00800           0
     16416 MEMB     131      PMPE     C217     CG3C31  -0.180000       12.0110           0
     16417 MEMB     131      PMPE     H17R     HGA2     0.900000E-01   1.00800           0
     16418 MEMB     131      PMPE     H17S     HGA2     0.900000E-01   1.00800           0
     16419 MEMB     131      PMPE     C210     CG3RC1  -0.900000E-01   12.0110           0
     16420 MEMB     131      PMPE     H10R     HGA1     0.900000E-01   1.00800           0
     16421 MEMB     131      PMPE     C211     CTL2    -0.180000       12.0110           0
     16422 MEMB     131      PMPE     H11R     HAL2     0.900000E-01   1.00800           0
     16423 MEMB     131      PMPE     H11S     HAL2     0.900000E-01   1.00800           0
     16424 MEMB     131      PMPE     C212     CTL2    -0.180000       12.0110           0
     16425 MEMB     131      PMPE     H12R     HAL2     0.900000E-01   1.00800           0
     16426 MEMB     131      PMPE     H12S     HAL2     0.900000E-01   1.00800           0
     16427 MEMB     131      PMPE     C213     CTL2    -0.180000       12.0110           0
     16428 MEMB     131      PMPE     H13R     HAL2     0.900000E-01   1.00800           0
     16429 MEMB     131      PMPE     H13S     HAL2     0.900000E-01   1.00800           0
     16430 MEMB     131      PMPE     C214     CTL2    -0.180000       12.0110           0
     16431 MEMB     131      PMPE     H14R     HAL2     0.900000E-01   1.00800           0
     16432 MEMB     131      PMPE     H14S     HAL2     0.900000E-01   1.00800           0
     16433 MEMB     131      PMPE     C215     CTL2    -0.180000       12.0110           0
     16434 MEMB     131      PMPE     H15R     HAL2     0.900000E-01   1.00800           0
     16435 MEMB     131      PMPE     H15S     HAL2     0.900000E-01   1.00800           0
     16436 MEMB     131      PMPE     C216     CTL3    -0.270000       12.0110           0
     16437 MEMB     131      PMPE     H16R     HAL3     0.900000E-01   1.00800           0
     16438 MEMB     131      PMPE     H16S     HAL3     0.900000E-01   1.00800           0
     16439 MEMB     131      PMPE     H16T     HAL3     0.900000E-01   1.00800           0
     16440 MEMB     131      PMPE     C33      CTL2    -0.180000       12.0110           0
     16441 MEMB     131      PMPE     H3X      HAL2     0.900000E-01   1.00800           0
     16442 MEMB     131      PMPE     H3Y      HAL2     0.900000E-01   1.00800           0
     16443 MEMB     131      PMPE     C34      CTL2    -0.180000       12.0110           0
     16444 MEMB     131      PMPE     H4X      HAL2     0.900000E-01   1.00800           0
     16445 MEMB     131      PMPE     H4Y      HAL2     0.900000E-01   1.00800           0
     16446 MEMB     131      PMPE     C35      CTL2    -0.180000       12.0110           0
     16447 MEMB     131      PMPE     H5X      HAL2     0.900000E-01   1.00800           0
     16448 MEMB     131      PMPE     H5Y      HAL2     0.900000E-01   1.00800           0
     16449 MEMB     131      PMPE     C36      CTL2    -0.180000       12.0110           0
     16450 MEMB     131      PMPE     H6X      HAL2     0.900000E-01   1.00800           0
     16451 MEMB     131      PMPE     H6Y      HAL2     0.900000E-01   1.00800           0
     16452 MEMB     131      PMPE     C37      CTL2    -0.180000       12.0110           0
     16453 MEMB     131      PMPE     H7X      HAL2     0.900000E-01   1.00800           0
     16454 MEMB     131      PMPE     H7Y      HAL2     0.900000E-01   1.00800           0
     16455 MEMB     131      PMPE     C38      CTL2    -0.180000       12.0110           0
     16456 MEMB     131      PMPE     H8X      HAL2     0.900000E-01   1.00800           0
     16457 MEMB     131      PMPE     H8Y      HAL2     0.900000E-01   1.00800           0
     16458 MEMB     131      PMPE     C39      CTL2    -0.180000       12.0110           0
     16459 MEMB     131      PMPE     H9X      HAL2     0.900000E-01   1.00800           0
     16460 MEMB     131      PMPE     H9Y      HAL2     0.900000E-01   1.00800           0
     16461 MEMB     131      PMPE     C310     CTL2    -0.180000       12.0110           0
     16462 MEMB     131      PMPE     H10X     HAL2     0.900000E-01   1.00800           0
     16463 MEMB     131      PMPE     H10Y     HAL2     0.900000E-01   1.00800           0
     16464 MEMB     131      PMPE     C311     CTL2    -0.180000       12.0110           0
     16465 MEMB     131      PMPE     H11X     HAL2     0.900000E-01   1.00800           0
     16466 MEMB     131      PMPE     H11Y     HAL2     0.900000E-01   1.00800           0
     16467 MEMB     131      PMPE     C312     CTL2    -0.180000       12.0110           0
     16468 MEMB     131      PMPE     H12X     HAL2     0.900000E-01   1.00800           0
     16469 MEMB     131      PMPE     H12Y     HAL2     0.900000E-01   1.00800           0
     16470 MEMB     131      PMPE     C313     CTL2    -0.180000       12.0110           0
     16471 MEMB     131      PMPE     H13X     HAL2     0.900000E-01   1.00800           0
     16472 MEMB     131      PMPE     H13Y     HAL2     0.900000E-01   1.00800           0
     16473 MEMB     131      PMPE     C314     CTL2    -0.180000       12.0110           0
     16474 MEMB     131      PMPE     H14X     HAL2     0.900000E-01   1.00800           0
     16475 MEMB     131      PMPE     H14Y     HAL2     0.900000E-01   1.00800           0
     16476 MEMB     131      PMPE     C315     CTL2    -0.180000       12.0110           0
     16477 MEMB     131      PMPE     H15X     HAL2     0.900000E-01   1.00800           0
     16478 MEMB     131      PMPE     H15Y     HAL2     0.900000E-01   1.00800           0
     16479 MEMB     131      PMPE     C316     CTL3    -0.270000       12.0110           0
     16480 MEMB     131      PMPE     H16X     HAL3     0.900000E-01   1.00800           0
     16481 MEMB     131      PMPE     H16Y     HAL3     0.900000E-01   1.00800           0
     16482 MEMB     131      PMPE     H16Z     HAL3     0.900000E-01   1.00800           0
     16483 MEMB     132      QMPE     N        NH3L    -0.300000       14.0070           0
     16484 MEMB     132      QMPE     HN1      HCL      0.330000       1.00800           0
     16485 MEMB     132      QMPE     HN2      HCL      0.330000       1.00800           0
     16486 MEMB     132      QMPE     HN3      HCL      0.330000       1.00800           0
     16487 MEMB     132      QMPE     C12      CTL2     0.130000       12.0110           0
     16488 MEMB     132      QMPE     H12A     HAL2     0.900000E-01   1.00800           0
     16489 MEMB     132      QMPE     H12B     HAL2     0.900000E-01   1.00800           0
     16490 MEMB     132      QMPE     C11      CTL2    -0.800000E-01   12.0110           0
     16491 MEMB     132      QMPE     H11A     HAL2     0.900000E-01   1.00800           0
     16492 MEMB     132      QMPE     H11B     HAL2     0.900000E-01   1.00800           0
     16493 MEMB     132      QMPE     P        PL        1.50000       30.9740           0
     16494 MEMB     132      QMPE     O13      O2L     -0.780000       15.9994           0
     16495 MEMB     132      QMPE     O14      O2L     -0.780000       15.9994           0
     16496 MEMB     132      QMPE     O11      OSLP    -0.570000       15.9994           0
     16497 MEMB     132      QMPE     O12      OSLP    -0.570000       15.9994           0
     16498 MEMB     132      QMPE     C1       CTL2    -0.800000E-01   12.0110           0
     16499 MEMB     132      QMPE     HA       HAL2     0.900000E-01   1.00800           0
     16500 MEMB     132      QMPE     HB       HAL2     0.900000E-01   1.00800           0
     16501 MEMB     132      QMPE     C2       CTL1     0.170000       12.0110           0
     16502 MEMB     132      QMPE     HS       HAL1     0.900000E-01   1.00800           0
     16503 MEMB     132      QMPE     O21      OSL     -0.490000       15.9994           0
     16504 MEMB     132      QMPE     C21      CL       0.900000       12.0110           0
     16505 MEMB     132      QMPE     O22      OBL     -0.630000       15.9994           0
     16506 MEMB     132      QMPE     C22      CTL2    -0.220000       12.0110           0
     16507 MEMB     132      QMPE     H2R      HAL2     0.900000E-01   1.00800           0
     16508 MEMB     132      QMPE     H2S      HAL2     0.900000E-01   1.00800           0
     16509 MEMB     132      QMPE     C3       CTL2     0.800000E-01   12.0110           0
     16510 MEMB     132      QMPE     HX       HAL2     0.900000E-01   1.00800           0
     16511 MEMB     132      QMPE     HY       HAL2     0.900000E-01   1.00800           0
     16512 MEMB     132      QMPE     O31      OSL     -0.490000       15.9994           0
     16513 MEMB     132      QMPE     C31      CL       0.900000       12.0110           0
     16514 MEMB     132      QMPE     O32      OBL     -0.630000       15.9994           0
     16515 MEMB     132      QMPE     C32      CTL2    -0.220000       12.0110           0
     16516 MEMB     132      QMPE     H2X      HAL2     0.900000E-01   1.00800           0
     16517 MEMB     132      QMPE     H2Y      HAL2     0.900000E-01   1.00800           0
     16518 MEMB     132      QMPE     C23      CTL2    -0.180000       12.0110           0
     16519 MEMB     132      QMPE     H3R      HAL2     0.900000E-01   1.00800           0
     16520 MEMB     132      QMPE     H3S      HAL2     0.900000E-01   1.00800           0
     16521 MEMB     132      QMPE     C24      CTL2    -0.180000       12.0110           0
     16522 MEMB     132      QMPE     H4R      HAL2     0.900000E-01   1.00800           0
     16523 MEMB     132      QMPE     H4S      HAL2     0.900000E-01   1.00800           0
     16524 MEMB     132      QMPE     C25      CTL2    -0.180000       12.0110           0
     16525 MEMB     132      QMPE     H5R      HAL2     0.900000E-01   1.00800           0
     16526 MEMB     132      QMPE     H5S      HAL2     0.900000E-01   1.00800           0
     16527 MEMB     132      QMPE     C26      CTL2    -0.180000       12.0110           0
     16528 MEMB     132      QMPE     H6R      HAL2     0.900000E-01   1.00800           0
     16529 MEMB     132      QMPE     H6S      HAL2     0.900000E-01   1.00800           0
     16530 MEMB     132      QMPE     C27      CTL2    -0.180000       12.0110           0
     16531 MEMB     132      QMPE     H7R      HAL2     0.900000E-01   1.00800           0
     16532 MEMB     132      QMPE     H7S      HAL2     0.900000E-01   1.00800           0
     16533 MEMB     132      QMPE     C28      CTL2    -0.180000       12.0110           0
     16534 MEMB     132      QMPE     H8R      HAL2     0.900000E-01   1.00800           0
     16535 MEMB     132      QMPE     H8S      HAL2     0.900000E-01   1.00800           0
     16536 MEMB     132      QMPE     C29      CG3RC1  -0.900000E-01   12.0110           0
     16537 MEMB     132      QMPE     H9R      HGA1     0.900000E-01   1.00800           0
     16538 MEMB     132      QMPE     C217     CG3C31  -0.180000       12.0110           0
     16539 MEMB     132      QMPE     H17R     HGA2     0.900000E-01   1.00800           0
     16540 MEMB     132      QMPE     H17S     HGA2     0.900000E-01   1.00800           0
     16541 MEMB     132      QMPE     C210     CG3RC1  -0.900000E-01   12.0110           0
     16542 MEMB     132      QMPE     H10R     HGA1     0.900000E-01   1.00800           0
     16543 MEMB     132      QMPE     C211     CTL2    -0.180000       12.0110           0
     16544 MEMB     132      QMPE     H11R     HAL2     0.900000E-01   1.00800           0
     16545 MEMB     132      QMPE     H11S     HAL2     0.900000E-01   1.00800           0
     16546 MEMB     132      QMPE     C212     CTL2    -0.180000       12.0110           0
     16547 MEMB     132      QMPE     H12R     HAL2     0.900000E-01   1.00800           0
     16548 MEMB     132      QMPE     H12S     HAL2     0.900000E-01   1.00800           0
     16549 MEMB     132      QMPE     C213     CTL2    -0.180000       12.0110           0
     16550 MEMB     132      QMPE     H13R     HAL2     0.900000E-01   1.00800           0
     16551 MEMB     132      QMPE     H13S     HAL2     0.900000E-01   1.00800           0
     16552 MEMB     132      QMPE     C214     CTL2    -0.180000       12.0110           0
     16553 MEMB     132      QMPE     H14R     HAL2     0.900000E-01   1.00800           0
     16554 MEMB     132      QMPE     H14S     HAL2     0.900000E-01   1.00800           0
     16555 MEMB     132      QMPE     C215     CTL2    -0.180000       12.0110           0
     16556 MEMB     132      QMPE     H15R     HAL2     0.900000E-01   1.00800           0
     16557 MEMB     132      QMPE     H15S     HAL2     0.900000E-01   1.00800           0
     16558 MEMB     132      QMPE     C216     CTL3    -0.270000       12.0110           0
     16559 MEMB     132      QMPE     H16R     HAL3     0.900000E-01   1.00800           0
     16560 MEMB     132      QMPE     H16S     HAL3     0.900000E-01   1.00800           0
     16561 MEMB     132      QMPE     H16T     HAL3     0.900000E-01   1.00800           0
     16562 MEMB     132      QMPE     C33      CTL2    -0.180000       12.0110           0
     16563 MEMB     132      QMPE     H3X      HAL2     0.900000E-01   1.00800           0
     16564 MEMB     132      QMPE     H3Y      HAL2     0.900000E-01   1.00800           0
     16565 MEMB     132      QMPE     C34      CTL2    -0.180000       12.0110           0
     16566 MEMB     132      QMPE     H4X      HAL2     0.900000E-01   1.00800           0
     16567 MEMB     132      QMPE     H4Y      HAL2     0.900000E-01   1.00800           0
     16568 MEMB     132      QMPE     C35      CTL2    -0.180000       12.0110           0
     16569 MEMB     132      QMPE     H5X      HAL2     0.900000E-01   1.00800           0
     16570 MEMB     132      QMPE     H5Y      HAL2     0.900000E-01   1.00800           0
     16571 MEMB     132      QMPE     C36      CTL2    -0.180000       12.0110           0
     16572 MEMB     132      QMPE     H6X      HAL2     0.900000E-01   1.00800           0
     16573 MEMB     132      QMPE     H6Y      HAL2     0.900000E-01   1.00800           0
     16574 MEMB     132      QMPE     C37      CTL2    -0.180000       12.0110           0
     16575 MEMB     132      QMPE     H7X      HAL2     0.900000E-01   1.00800           0
     16576 MEMB     132      QMPE     H7Y      HAL2     0.900000E-01   1.00800           0
     16577 MEMB     132      QMPE     C38      CTL2    -0.180000       12.0110           0
     16578 MEMB     132      QMPE     H8X      HAL2     0.900000E-01   1.00800           0
     16579 MEMB     132      QMPE     H8Y      HAL2     0.900000E-01   1.00800           0
     16580 MEMB     132      QMPE     C39      CTL2    -0.180000       12.0110           0
     16581 MEMB     132      QMPE     H9X      HAL2     0.900000E-01   1.00800           0
     16582 MEMB     132      QMPE     H9Y      HAL2     0.900000E-01   1.00800           0
     16583 MEMB     132      QMPE     C310     CTL2    -0.180000       12.0110           0
     16584 MEMB     132      QMPE     H10X     HAL2     0.900000E-01   1.00800           0
     16585 MEMB     132      QMPE     H10Y     HAL2     0.900000E-01   1.00800           0
     16586 MEMB     132      QMPE     C311     CTL2    -0.180000       12.0110           0
     16587 MEMB     132      QMPE     H11X     HAL2     0.900000E-01   1.00800           0
     16588 MEMB     132      QMPE     H11Y     HAL2     0.900000E-01   1.00800           0
     16589 MEMB     132      QMPE     C312     CTL2    -0.180000       12.0110           0
     16590 MEMB     132      QMPE     H12X     HAL2     0.900000E-01   1.00800           0
     16591 MEMB     132      QMPE     H12Y     HAL2     0.900000E-01   1.00800           0
     16592 MEMB     132      QMPE     C313     CTL2    -0.180000       12.0110           0
     16593 MEMB     132      QMPE     H13X     HAL2     0.900000E-01   1.00800           0
     16594 MEMB     132      QMPE     H13Y     HAL2     0.900000E-01   1.00800           0
     16595 MEMB     132      QMPE     C314     CTL2    -0.180000       12.0110           0
     16596 MEMB     132      QMPE     H14X     HAL2     0.900000E-01   1.00800           0
     16597 MEMB     132      QMPE     H14Y     HAL2     0.900000E-01   1.00800           0
     16598 MEMB     132      QMPE     C315     CTL3    -0.270000       12.0110           0
     16599 MEMB     132      QMPE     H15X     HAL3     0.900000E-01   1.00800           0
     16600 MEMB     132      QMPE     H15Y     HAL3     0.900000E-01   1.00800           0
     16601 MEMB     132      QMPE     H15Z     HAL3     0.900000E-01   1.00800           0
     16602 MEMB     133      PMPE     N        NH3L    -0.300000       14.0070           0
     16603 MEMB     133      PMPE     HN1      HCL      0.330000       1.00800           0
     16604 MEMB     133      PMPE     HN2      HCL      0.330000       1.00800           0
     16605 MEMB     133      PMPE     HN3      HCL      0.330000       1.00800           0
     16606 MEMB     133      PMPE     C12      CTL2     0.130000       12.0110           0
     16607 MEMB     133      PMPE     H12A     HAL2     0.900000E-01   1.00800           0
     16608 MEMB     133      PMPE     H12B     HAL2     0.900000E-01   1.00800           0
     16609 MEMB     133      PMPE     C11      CTL2    -0.800000E-01   12.0110           0
     16610 MEMB     133      PMPE     H11A     HAL2     0.900000E-01   1.00800           0
     16611 MEMB     133      PMPE     H11B     HAL2     0.900000E-01   1.00800           0
     16612 MEMB     133      PMPE     P        PL        1.50000       30.9740           0
     16613 MEMB     133      PMPE     O13      O2L     -0.780000       15.9994           0
     16614 MEMB     133      PMPE     O14      O2L     -0.780000       15.9994           0
     16615 MEMB     133      PMPE     O11      OSLP    -0.570000       15.9994           0
     16616 MEMB     133      PMPE     O12      OSLP    -0.570000       15.9994           0
     16617 MEMB     133      PMPE     C1       CTL2    -0.800000E-01   12.0110           0
     16618 MEMB     133      PMPE     HA       HAL2     0.900000E-01   1.00800           0
     16619 MEMB     133      PMPE     HB       HAL2     0.900000E-01   1.00800           0
     16620 MEMB     133      PMPE     C2       CTL1     0.170000       12.0110           0
     16621 MEMB     133      PMPE     HS       HAL1     0.900000E-01   1.00800           0
     16622 MEMB     133      PMPE     O21      OSL     -0.490000       15.9994           0
     16623 MEMB     133      PMPE     C21      CL       0.900000       12.0110           0
     16624 MEMB     133      PMPE     O22      OBL     -0.630000       15.9994           0
     16625 MEMB     133      PMPE     C22      CTL2    -0.220000       12.0110           0
     16626 MEMB     133      PMPE     H2R      HAL2     0.900000E-01   1.00800           0
     16627 MEMB     133      PMPE     H2S      HAL2     0.900000E-01   1.00800           0
     16628 MEMB     133      PMPE     C3       CTL2     0.800000E-01   12.0110           0
     16629 MEMB     133      PMPE     HX       HAL2     0.900000E-01   1.00800           0
     16630 MEMB     133      PMPE     HY       HAL2     0.900000E-01   1.00800           0
     16631 MEMB     133      PMPE     O31      OSL     -0.490000       15.9994           0
     16632 MEMB     133      PMPE     C31      CL       0.900000       12.0110           0
     16633 MEMB     133      PMPE     O32      OBL     -0.630000       15.9994           0
     16634 MEMB     133      PMPE     C32      CTL2    -0.220000       12.0110           0
     16635 MEMB     133      PMPE     H2X      HAL2     0.900000E-01   1.00800           0
     16636 MEMB     133      PMPE     H2Y      HAL2     0.900000E-01   1.00800           0
     16637 MEMB     133      PMPE     C23      CTL2    -0.180000       12.0110           0
     16638 MEMB     133      PMPE     H3R      HAL2     0.900000E-01   1.00800           0
     16639 MEMB     133      PMPE     H3S      HAL2     0.900000E-01   1.00800           0
     16640 MEMB     133      PMPE     C24      CTL2    -0.180000       12.0110           0
     16641 MEMB     133      PMPE     H4R      HAL2     0.900000E-01   1.00800           0
     16642 MEMB     133      PMPE     H4S      HAL2     0.900000E-01   1.00800           0
     16643 MEMB     133      PMPE     C25      CTL2    -0.180000       12.0110           0
     16644 MEMB     133      PMPE     H5R      HAL2     0.900000E-01   1.00800           0
     16645 MEMB     133      PMPE     H5S      HAL2     0.900000E-01   1.00800           0
     16646 MEMB     133      PMPE     C26      CTL2    -0.180000       12.0110           0
     16647 MEMB     133      PMPE     H6R      HAL2     0.900000E-01   1.00800           0
     16648 MEMB     133      PMPE     H6S      HAL2     0.900000E-01   1.00800           0
     16649 MEMB     133      PMPE     C27      CTL2    -0.180000       12.0110           0
     16650 MEMB     133      PMPE     H7R      HAL2     0.900000E-01   1.00800           0
     16651 MEMB     133      PMPE     H7S      HAL2     0.900000E-01   1.00800           0
     16652 MEMB     133      PMPE     C28      CTL2    -0.180000       12.0110           0
     16653 MEMB     133      PMPE     H8R      HAL2     0.900000E-01   1.00800           0
     16654 MEMB     133      PMPE     H8S      HAL2     0.900000E-01   1.00800           0
     16655 MEMB     133      PMPE     C29      CG3RC1  -0.900000E-01   12.0110           0
     16656 MEMB     133      PMPE     H9R      HGA1     0.900000E-01   1.00800           0
     16657 MEMB     133      PMPE     C217     CG3C31  -0.180000       12.0110           0
     16658 MEMB     133      PMPE     H17R     HGA2     0.900000E-01   1.00800           0
     16659 MEMB     133      PMPE     H17S     HGA2     0.900000E-01   1.00800           0
     16660 MEMB     133      PMPE     C210     CG3RC1  -0.900000E-01   12.0110           0
     16661 MEMB     133      PMPE     H10R     HGA1     0.900000E-01   1.00800           0
     16662 MEMB     133      PMPE     C211     CTL2    -0.180000       12.0110           0
     16663 MEMB     133      PMPE     H11R     HAL2     0.900000E-01   1.00800           0
     16664 MEMB     133      PMPE     H11S     HAL2     0.900000E-01   1.00800           0
     16665 MEMB     133      PMPE     C212     CTL2    -0.180000       12.0110           0
     16666 MEMB     133      PMPE     H12R     HAL2     0.900000E-01   1.00800           0
     16667 MEMB     133      PMPE     H12S     HAL2     0.900000E-01   1.00800           0
     16668 MEMB     133      PMPE     C213     CTL2    -0.180000       12.0110           0
     16669 MEMB     133      PMPE     H13R     HAL2     0.900000E-01   1.00800           0
     16670 MEMB     133      PMPE     H13S     HAL2     0.900000E-01   1.00800           0
     16671 MEMB     133      PMPE     C214     CTL2    -0.180000       12.0110           0
     16672 MEMB     133      PMPE     H14R     HAL2     0.900000E-01   1.00800           0
     16673 MEMB     133      PMPE     H14S     HAL2     0.900000E-01   1.00800           0
     16674 MEMB     133      PMPE     C215     CTL2    -0.180000       12.0110           0
     16675 MEMB     133      PMPE     H15R     HAL2     0.900000E-01   1.00800           0
     16676 MEMB     133      PMPE     H15S     HAL2     0.900000E-01   1.00800           0
     16677 MEMB     133      PMPE     C216     CTL3    -0.270000       12.0110           0
     16678 MEMB     133      PMPE     H16R     HAL3     0.900000E-01   1.00800           0
     16679 MEMB     133      PMPE     H16S     HAL3     0.900000E-01   1.00800           0
     16680 MEMB     133      PMPE     H16T     HAL3     0.900000E-01   1.00800           0
     16681 MEMB     133      PMPE     C33      CTL2    -0.180000       12.0110           0
     16682 MEMB     133      PMPE     H3X      HAL2     0.900000E-01   1.00800           0
     16683 MEMB     133      PMPE     H3Y      HAL2     0.900000E-01   1.00800           0
     16684 MEMB     133      PMPE     C34      CTL2    -0.180000       12.0110           0
     16685 MEMB     133      PMPE     H4X      HAL2     0.900000E-01   1.00800           0
     16686 MEMB     133      PMPE     H4Y      HAL2     0.900000E-01   1.00800           0
     16687 MEMB     133      PMPE     C35      CTL2    -0.180000       12.0110           0
     16688 MEMB     133      PMPE     H5X      HAL2     0.900000E-01   1.00800           0
     16689 MEMB     133      PMPE     H5Y      HAL2     0.900000E-01   1.00800           0
     16690 MEMB     133      PMPE     C36      CTL2    -0.180000       12.0110           0
     16691 MEMB     133      PMPE     H6X      HAL2     0.900000E-01   1.00800           0
     16692 MEMB     133      PMPE     H6Y      HAL2     0.900000E-01   1.00800           0
     16693 MEMB     133      PMPE     C37      CTL2    -0.180000       12.0110           0
     16694 MEMB     133      PMPE     H7X      HAL2     0.900000E-01   1.00800           0
     16695 MEMB     133      PMPE     H7Y      HAL2     0.900000E-01   1.00800           0
     16696 MEMB     133      PMPE     C38      CTL2    -0.180000       12.0110           0
     16697 MEMB     133      PMPE     H8X      HAL2     0.900000E-01   1.00800           0
     16698 MEMB     133      PMPE     H8Y      HAL2     0.900000E-01   1.00800           0
     16699 MEMB     133      PMPE     C39      CTL2    -0.180000       12.0110           0
     16700 MEMB     133      PMPE     H9X      HAL2     0.900000E-01   1.00800           0
     16701 MEMB     133      PMPE     H9Y      HAL2     0.900000E-01   1.00800           0
     16702 MEMB     133      PMPE     C310     CTL2    -0.180000       12.0110           0
     16703 MEMB     133      PMPE     H10X     HAL2     0.900000E-01   1.00800           0
     16704 MEMB     133      PMPE     H10Y     HAL2     0.900000E-01   1.00800           0
     16705 MEMB     133      PMPE     C311     CTL2    -0.180000       12.0110           0
     16706 MEMB     133      PMPE     H11X     HAL2     0.900000E-01   1.00800           0
     16707 MEMB     133      PMPE     H11Y     HAL2     0.900000E-01   1.00800           0
     16708 MEMB     133      PMPE     C312     CTL2    -0.180000       12.0110           0
     16709 MEMB     133      PMPE     H12X     HAL2     0.900000E-01   1.00800           0
     16710 MEMB     133      PMPE     H12Y     HAL2     0.900000E-01   1.00800           0
     16711 MEMB     133      PMPE     C313     CTL2    -0.180000       12.0110           0
     16712 MEMB     133      PMPE     H13X     HAL2     0.900000E-01   1.00800           0
     16713 MEMB     133      PMPE     H13Y     HAL2     0.900000E-01   1.00800           0
     16714 MEMB     133      PMPE     C314     CTL2    -0.180000       12.0110           0
     16715 MEMB     133      PMPE     H14X     HAL2     0.900000E-01   1.00800           0
     16716 MEMB     133      PMPE     H14Y     HAL2     0.900000E-01   1.00800           0
     16717 MEMB     133      PMPE     C315     CTL2    -0.180000       12.0110           0
     16718 MEMB     133      PMPE     H15X     HAL2     0.900000E-01   1.00800           0
     16719 MEMB     133      PMPE     H15Y     HAL2     0.900000E-01   1.00800           0
     16720 MEMB     133      PMPE     C316     CTL3    -0.270000       12.0110           0
     16721 MEMB     133      PMPE     H16X     HAL3     0.900000E-01   1.00800           0
     16722 MEMB     133      PMPE     H16Y     HAL3     0.900000E-01   1.00800           0
     16723 MEMB     133      PMPE     H16Z     HAL3     0.900000E-01   1.00800           0
     16724 MEMB     134      PMPG     C13      CTL2     0.500000E-01   12.0110           0
     16725 MEMB     134      PMPG     H13A     HAL2     0.900000E-01   1.00800           0
     16726 MEMB     134      PMPG     H13B     HAL2     0.900000E-01   1.00800           0
     16727 MEMB     134      PMPG     OC3      OHL     -0.660000       15.9994           0
     16728 MEMB     134      PMPG     HO3      HOL      0.430000       1.00800           0
     16729 MEMB     134      PMPG     C12      CTL1     0.140000       12.0110           0
     16730 MEMB     134      PMPG     H12A     HAL1     0.900000E-01   1.00800           0
     16731 MEMB     134      PMPG     OC2      OHL     -0.660000       15.9994           0
     16732 MEMB     134      PMPG     HO2      HOL      0.430000       1.00800           0
     16733 MEMB     134      PMPG     C11      CTL2    -0.800000E-01   12.0110           0
     16734 MEMB     134      PMPG     H11A     HAL2     0.900000E-01   1.00800           0
     16735 MEMB     134      PMPG     H11B     HAL2     0.900000E-01   1.00800           0
     16736 MEMB     134      PMPG     P        PL        1.50000       30.9740           0
     16737 MEMB     134      PMPG     O13      O2L     -0.780000       15.9994           0
     16738 MEMB     134      PMPG     O14      O2L     -0.780000       15.9994           0
     16739 MEMB     134      PMPG     O11      OSLP    -0.570000       15.9994           0
     16740 MEMB     134      PMPG     O12      OSLP    -0.570000       15.9994           0
     16741 MEMB     134      PMPG     C1       CTL2    -0.800000E-01   12.0110           0
     16742 MEMB     134      PMPG     HA       HAL2     0.900000E-01   1.00800           0
     16743 MEMB     134      PMPG     HB       HAL2     0.900000E-01   1.00800           0
     16744 MEMB     134      PMPG     C2       CTL1     0.170000       12.0110           0
     16745 MEMB     134      PMPG     HS       HAL1     0.900000E-01   1.00800           0
     16746 MEMB     134      PMPG     O21      OSL     -0.490000       15.9994           0
     16747 MEMB     134      PMPG     C21      CL       0.900000       12.0110           0
     16748 MEMB     134      PMPG     O22      OBL     -0.630000       15.9994           0
     16749 MEMB     134      PMPG     C22      CTL2    -0.220000       12.0110           0
     16750 MEMB     134      PMPG     H2R      HAL2     0.900000E-01   1.00800           0
     16751 MEMB     134      PMPG     H2S      HAL2     0.900000E-01   1.00800           0
     16752 MEMB     134      PMPG     C3       CTL2     0.800000E-01   12.0110           0
     16753 MEMB     134      PMPG     HX       HAL2     0.900000E-01   1.00800           0
     16754 MEMB     134      PMPG     HY       HAL2     0.900000E-01   1.00800           0
     16755 MEMB     134      PMPG     O31      OSL     -0.490000       15.9994           0
     16756 MEMB     134      PMPG     C31      CL       0.900000       12.0110           0
     16757 MEMB     134      PMPG     O32      OBL     -0.630000       15.9994           0
     16758 MEMB     134      PMPG     C32      CTL2    -0.220000       12.0110           0
     16759 MEMB     134      PMPG     H2X      HAL2     0.900000E-01   1.00800           0
     16760 MEMB     134      PMPG     H2Y      HAL2     0.900000E-01   1.00800           0
     16761 MEMB     134      PMPG     C23      CTL2    -0.180000       12.0110           0
     16762 MEMB     134      PMPG     H3R      HAL2     0.900000E-01   1.00800           0
     16763 MEMB     134      PMPG     H3S      HAL2     0.900000E-01   1.00800           0
     16764 MEMB     134      PMPG     C24      CTL2    -0.180000       12.0110           0
     16765 MEMB     134      PMPG     H4R      HAL2     0.900000E-01   1.00800           0
     16766 MEMB     134      PMPG     H4S      HAL2     0.900000E-01   1.00800           0
     16767 MEMB     134      PMPG     C25      CTL2    -0.180000       12.0110           0
     16768 MEMB     134      PMPG     H5R      HAL2     0.900000E-01   1.00800           0
     16769 MEMB     134      PMPG     H5S      HAL2     0.900000E-01   1.00800           0
     16770 MEMB     134      PMPG     C26      CTL2    -0.180000       12.0110           0
     16771 MEMB     134      PMPG     H6R      HAL2     0.900000E-01   1.00800           0
     16772 MEMB     134      PMPG     H6S      HAL2     0.900000E-01   1.00800           0
     16773 MEMB     134      PMPG     C27      CTL2    -0.180000       12.0110           0
     16774 MEMB     134      PMPG     H7R      HAL2     0.900000E-01   1.00800           0
     16775 MEMB     134      PMPG     H7S      HAL2     0.900000E-01   1.00800           0
     16776 MEMB     134      PMPG     C28      CTL2    -0.180000       12.0110           0
     16777 MEMB     134      PMPG     H8R      HAL2     0.900000E-01   1.00800           0
     16778 MEMB     134      PMPG     H8S      HAL2     0.900000E-01   1.00800           0
     16779 MEMB     134      PMPG     C29      CG3RC1  -0.900000E-01   12.0110           0
     16780 MEMB     134      PMPG     H9R      HGA1     0.900000E-01   1.00800           0
     16781 MEMB     134      PMPG     C217     CG3C31  -0.180000       12.0110           0
     16782 MEMB     134      PMPG     H17R     HGA2     0.900000E-01   1.00800           0
     16783 MEMB     134      PMPG     H17S     HGA2     0.900000E-01   1.00800           0
     16784 MEMB     134      PMPG     C210     CG3RC1  -0.900000E-01   12.0110           0
     16785 MEMB     134      PMPG     H10R     HGA1     0.900000E-01   1.00800           0
     16786 MEMB     134      PMPG     C211     CTL2    -0.180000       12.0110           0
     16787 MEMB     134      PMPG     H11R     HAL2     0.900000E-01   1.00800           0
     16788 MEMB     134      PMPG     H11S     HAL2     0.900000E-01   1.00800           0
     16789 MEMB     134      PMPG     C212     CTL2    -0.180000       12.0110           0
     16790 MEMB     134      PMPG     H12R     HAL2     0.900000E-01   1.00800           0
     16791 MEMB     134      PMPG     H12S     HAL2     0.900000E-01   1.00800           0
     16792 MEMB     134      PMPG     C213     CTL2    -0.180000       12.0110           0
     16793 MEMB     134      PMPG     H13R     HAL2     0.900000E-01   1.00800           0
     16794 MEMB     134      PMPG     H13S     HAL2     0.900000E-01   1.00800           0
     16795 MEMB     134      PMPG     C214     CTL2    -0.180000       12.0110           0
     16796 MEMB     134      PMPG     H14R     HAL2     0.900000E-01   1.00800           0
     16797 MEMB     134      PMPG     H14S     HAL2     0.900000E-01   1.00800           0
     16798 MEMB     134      PMPG     C215     CTL2    -0.180000       12.0110           0
     16799 MEMB     134      PMPG     H15R     HAL2     0.900000E-01   1.00800           0
     16800 MEMB     134      PMPG     H15S     HAL2     0.900000E-01   1.00800           0
     16801 MEMB     134      PMPG     C216     CTL3    -0.270000       12.0110           0
     16802 MEMB     134      PMPG     H16R     HAL3     0.900000E-01   1.00800           0
     16803 MEMB     134      PMPG     H16S     HAL3     0.900000E-01   1.00800           0
     16804 MEMB     134      PMPG     H16T     HAL3     0.900000E-01   1.00800           0
     16805 MEMB     134      PMPG     C33      CTL2    -0.180000       12.0110           0
     16806 MEMB     134      PMPG     H3X      HAL2     0.900000E-01   1.00800           0
     16807 MEMB     134      PMPG     H3Y      HAL2     0.900000E-01   1.00800           0
     16808 MEMB     134      PMPG     C34      CTL2    -0.180000       12.0110           0
     16809 MEMB     134      PMPG     H4X      HAL2     0.900000E-01   1.00800           0
     16810 MEMB     134      PMPG     H4Y      HAL2     0.900000E-01   1.00800           0
     16811 MEMB     134      PMPG     C35      CTL2    -0.180000       12.0110           0
     16812 MEMB     134      PMPG     H5X      HAL2     0.900000E-01   1.00800           0
     16813 MEMB     134      PMPG     H5Y      HAL2     0.900000E-01   1.00800           0
     16814 MEMB     134      PMPG     C36      CTL2    -0.180000       12.0110           0
     16815 MEMB     134      PMPG     H6X      HAL2     0.900000E-01   1.00800           0
     16816 MEMB     134      PMPG     H6Y      HAL2     0.900000E-01   1.00800           0
     16817 MEMB     134      PMPG     C37      CTL2    -0.180000       12.0110           0
     16818 MEMB     134      PMPG     H7X      HAL2     0.900000E-01   1.00800           0
     16819 MEMB     134      PMPG     H7Y      HAL2     0.900000E-01   1.00800           0
     16820 MEMB     134      PMPG     C38      CTL2    -0.180000       12.0110           0
     16821 MEMB     134      PMPG     H8X      HAL2     0.900000E-01   1.00800           0
     16822 MEMB     134      PMPG     H8Y      HAL2     0.900000E-01   1.00800           0
     16823 MEMB     134      PMPG     C39      CTL2    -0.180000       12.0110           0
     16824 MEMB     134      PMPG     H9X      HAL2     0.900000E-01   1.00800           0
     16825 MEMB     134      PMPG     H9Y      HAL2     0.900000E-01   1.00800           0
     16826 MEMB     134      PMPG     C310     CTL2    -0.180000       12.0110           0
     16827 MEMB     134      PMPG     H10X     HAL2     0.900000E-01   1.00800           0
     16828 MEMB     134      PMPG     H10Y     HAL2     0.900000E-01   1.00800           0
     16829 MEMB     134      PMPG     C311     CTL2    -0.180000       12.0110           0
     16830 MEMB     134      PMPG     H11X     HAL2     0.900000E-01   1.00800           0
     16831 MEMB     134      PMPG     H11Y     HAL2     0.900000E-01   1.00800           0
     16832 MEMB     134      PMPG     C312     CTL2    -0.180000       12.0110           0
     16833 MEMB     134      PMPG     H12X     HAL2     0.900000E-01   1.00800           0
     16834 MEMB     134      PMPG     H12Y     HAL2     0.900000E-01   1.00800           0
     16835 MEMB     134      PMPG     C313     CTL2    -0.180000       12.0110           0
     16836 MEMB     134      PMPG     H13X     HAL2     0.900000E-01   1.00800           0
     16837 MEMB     134      PMPG     H13Y     HAL2     0.900000E-01   1.00800           0
     16838 MEMB     134      PMPG     C314     CTL2    -0.180000       12.0110           0
     16839 MEMB     134      PMPG     H14X     HAL2     0.900000E-01   1.00800           0
     16840 MEMB     134      PMPG     H14Y     HAL2     0.900000E-01   1.00800           0
     16841 MEMB     134      PMPG     C315     CTL2    -0.180000       12.0110           0
     16842 MEMB     134      PMPG     H15X     HAL2     0.900000E-01   1.00800           0
     16843 MEMB     134      PMPG     H15Y     HAL2     0.900000E-01   1.00800           0
     16844 MEMB     134      PMPG     C316     CTL3    -0.270000       12.0110           0
     16845 MEMB     134      PMPG     H16X     HAL3     0.900000E-01   1.00800           0
     16846 MEMB     134      PMPG     H16Y     HAL3     0.900000E-01   1.00800           0
     16847 MEMB     134      PMPG     H16Z     HAL3     0.900000E-01   1.00800           0
     16848 MEMB     135      PMPE     N        NH3L    -0.300000       14.0070           0
     16849 MEMB     135      PMPE     HN1      HCL      0.330000       1.00800           0
     16850 MEMB     135      PMPE     HN2      HCL      0.330000       1.00800           0
     16851 MEMB     135      PMPE     HN3      HCL      0.330000       1.00800           0
     16852 MEMB     135      PMPE     C12      CTL2     0.130000       12.0110           0
     16853 MEMB     135      PMPE     H12A     HAL2     0.900000E-01   1.00800           0
     16854 MEMB     135      PMPE     H12B     HAL2     0.900000E-01   1.00800           0
     16855 MEMB     135      PMPE     C11      CTL2    -0.800000E-01   12.0110           0
     16856 MEMB     135      PMPE     H11A     HAL2     0.900000E-01   1.00800           0
     16857 MEMB     135      PMPE     H11B     HAL2     0.900000E-01   1.00800           0
     16858 MEMB     135      PMPE     P        PL        1.50000       30.9740           0
     16859 MEMB     135      PMPE     O13      O2L     -0.780000       15.9994           0
     16860 MEMB     135      PMPE     O14      O2L     -0.780000       15.9994           0
     16861 MEMB     135      PMPE     O11      OSLP    -0.570000       15.9994           0
     16862 MEMB     135      PMPE     O12      OSLP    -0.570000       15.9994           0
     16863 MEMB     135      PMPE     C1       CTL2    -0.800000E-01   12.0110           0
     16864 MEMB     135      PMPE     HA       HAL2     0.900000E-01   1.00800           0
     16865 MEMB     135      PMPE     HB       HAL2     0.900000E-01   1.00800           0
     16866 MEMB     135      PMPE     C2       CTL1     0.170000       12.0110           0
     16867 MEMB     135      PMPE     HS       HAL1     0.900000E-01   1.00800           0
     16868 MEMB     135      PMPE     O21      OSL     -0.490000       15.9994           0
     16869 MEMB     135      PMPE     C21      CL       0.900000       12.0110           0
     16870 MEMB     135      PMPE     O22      OBL     -0.630000       15.9994           0
     16871 MEMB     135      PMPE     C22      CTL2    -0.220000       12.0110           0
     16872 MEMB     135      PMPE     H2R      HAL2     0.900000E-01   1.00800           0
     16873 MEMB     135      PMPE     H2S      HAL2     0.900000E-01   1.00800           0
     16874 MEMB     135      PMPE     C3       CTL2     0.800000E-01   12.0110           0
     16875 MEMB     135      PMPE     HX       HAL2     0.900000E-01   1.00800           0
     16876 MEMB     135      PMPE     HY       HAL2     0.900000E-01   1.00800           0
     16877 MEMB     135      PMPE     O31      OSL     -0.490000       15.9994           0
     16878 MEMB     135      PMPE     C31      CL       0.900000       12.0110           0
     16879 MEMB     135      PMPE     O32      OBL     -0.630000       15.9994           0
     16880 MEMB     135      PMPE     C32      CTL2    -0.220000       12.0110           0
     16881 MEMB     135      PMPE     H2X      HAL2     0.900000E-01   1.00800           0
     16882 MEMB     135      PMPE     H2Y      HAL2     0.900000E-01   1.00800           0
     16883 MEMB     135      PMPE     C23      CTL2    -0.180000       12.0110           0
     16884 MEMB     135      PMPE     H3R      HAL2     0.900000E-01   1.00800           0
     16885 MEMB     135      PMPE     H3S      HAL2     0.900000E-01   1.00800           0
     16886 MEMB     135      PMPE     C24      CTL2    -0.180000       12.0110           0
     16887 MEMB     135      PMPE     H4R      HAL2     0.900000E-01   1.00800           0
     16888 MEMB     135      PMPE     H4S      HAL2     0.900000E-01   1.00800           0
     16889 MEMB     135      PMPE     C25      CTL2    -0.180000       12.0110           0
     16890 MEMB     135      PMPE     H5R      HAL2     0.900000E-01   1.00800           0
     16891 MEMB     135      PMPE     H5S      HAL2     0.900000E-01   1.00800           0
     16892 MEMB     135      PMPE     C26      CTL2    -0.180000       12.0110           0
     16893 MEMB     135      PMPE     H6R      HAL2     0.900000E-01   1.00800           0
     16894 MEMB     135      PMPE     H6S      HAL2     0.900000E-01   1.00800           0
     16895 MEMB     135      PMPE     C27      CTL2    -0.180000       12.0110           0
     16896 MEMB     135      PMPE     H7R      HAL2     0.900000E-01   1.00800           0
     16897 MEMB     135      PMPE     H7S      HAL2     0.900000E-01   1.00800           0
     16898 MEMB     135      PMPE     C28      CTL2    -0.180000       12.0110           0
     16899 MEMB     135      PMPE     H8R      HAL2     0.900000E-01   1.00800           0
     16900 MEMB     135      PMPE     H8S      HAL2     0.900000E-01   1.00800           0
     16901 MEMB     135      PMPE     C29      CG3RC1  -0.900000E-01   12.0110           0
     16902 MEMB     135      PMPE     H9R      HGA1     0.900000E-01   1.00800           0
     16903 MEMB     135      PMPE     C217     CG3C31  -0.180000       12.0110           0
     16904 MEMB     135      PMPE     H17R     HGA2     0.900000E-01   1.00800           0
     16905 MEMB     135      PMPE     H17S     HGA2     0.900000E-01   1.00800           0
     16906 MEMB     135      PMPE     C210     CG3RC1  -0.900000E-01   12.0110           0
     16907 MEMB     135      PMPE     H10R     HGA1     0.900000E-01   1.00800           0
     16908 MEMB     135      PMPE     C211     CTL2    -0.180000       12.0110           0
     16909 MEMB     135      PMPE     H11R     HAL2     0.900000E-01   1.00800           0
     16910 MEMB     135      PMPE     H11S     HAL2     0.900000E-01   1.00800           0
     16911 MEMB     135      PMPE     C212     CTL2    -0.180000       12.0110           0
     16912 MEMB     135      PMPE     H12R     HAL2     0.900000E-01   1.00800           0
     16913 MEMB     135      PMPE     H12S     HAL2     0.900000E-01   1.00800           0
     16914 MEMB     135      PMPE     C213     CTL2    -0.180000       12.0110           0
     16915 MEMB     135      PMPE     H13R     HAL2     0.900000E-01   1.00800           0
     16916 MEMB     135      PMPE     H13S     HAL2     0.900000E-01   1.00800           0
     16917 MEMB     135      PMPE     C214     CTL2    -0.180000       12.0110           0
     16918 MEMB     135      PMPE     H14R     HAL2     0.900000E-01   1.00800           0
     16919 MEMB     135      PMPE     H14S     HAL2     0.900000E-01   1.00800           0
     16920 MEMB     135      PMPE     C215     CTL2    -0.180000       12.0110           0
     16921 MEMB     135      PMPE     H15R     HAL2     0.900000E-01   1.00800           0
     16922 MEMB     135      PMPE     H15S     HAL2     0.900000E-01   1.00800           0
     16923 MEMB     135      PMPE     C216     CTL3    -0.270000       12.0110           0
     16924 MEMB     135      PMPE     H16R     HAL3     0.900000E-01   1.00800           0
     16925 MEMB     135      PMPE     H16S     HAL3     0.900000E-01   1.00800           0
     16926 MEMB     135      PMPE     H16T     HAL3     0.900000E-01   1.00800           0
     16927 MEMB     135      PMPE     C33      CTL2    -0.180000       12.0110           0
     16928 MEMB     135      PMPE     H3X      HAL2     0.900000E-01   1.00800           0
     16929 MEMB     135      PMPE     H3Y      HAL2     0.900000E-01   1.00800           0
     16930 MEMB     135      PMPE     C34      CTL2    -0.180000       12.0110           0
     16931 MEMB     135      PMPE     H4X      HAL2     0.900000E-01   1.00800           0
     16932 MEMB     135      PMPE     H4Y      HAL2     0.900000E-01   1.00800           0
     16933 MEMB     135      PMPE     C35      CTL2    -0.180000       12.0110           0
     16934 MEMB     135      PMPE     H5X      HAL2     0.900000E-01   1.00800           0
     16935 MEMB     135      PMPE     H5Y      HAL2     0.900000E-01   1.00800           0
     16936 MEMB     135      PMPE     C36      CTL2    -0.180000       12.0110           0
     16937 MEMB     135      PMPE     H6X      HAL2     0.900000E-01   1.00800           0
     16938 MEMB     135      PMPE     H6Y      HAL2     0.900000E-01   1.00800           0
     16939 MEMB     135      PMPE     C37      CTL2    -0.180000       12.0110           0
     16940 MEMB     135      PMPE     H7X      HAL2     0.900000E-01   1.00800           0
     16941 MEMB     135      PMPE     H7Y      HAL2     0.900000E-01   1.00800           0
     16942 MEMB     135      PMPE     C38      CTL2    -0.180000       12.0110           0
     16943 MEMB     135      PMPE     H8X      HAL2     0.900000E-01   1.00800           0
     16944 MEMB     135      PMPE     H8Y      HAL2     0.900000E-01   1.00800           0
     16945 MEMB     135      PMPE     C39      CTL2    -0.180000       12.0110           0
     16946 MEMB     135      PMPE     H9X      HAL2     0.900000E-01   1.00800           0
     16947 MEMB     135      PMPE     H9Y      HAL2     0.900000E-01   1.00800           0
     16948 MEMB     135      PMPE     C310     CTL2    -0.180000       12.0110           0
     16949 MEMB     135      PMPE     H10X     HAL2     0.900000E-01   1.00800           0
     16950 MEMB     135      PMPE     H10Y     HAL2     0.900000E-01   1.00800           0
     16951 MEMB     135      PMPE     C311     CTL2    -0.180000       12.0110           0
     16952 MEMB     135      PMPE     H11X     HAL2     0.900000E-01   1.00800           0
     16953 MEMB     135      PMPE     H11Y     HAL2     0.900000E-01   1.00800           0
     16954 MEMB     135      PMPE     C312     CTL2    -0.180000       12.0110           0
     16955 MEMB     135      PMPE     H12X     HAL2     0.900000E-01   1.00800           0
     16956 MEMB     135      PMPE     H12Y     HAL2     0.900000E-01   1.00800           0
     16957 MEMB     135      PMPE     C313     CTL2    -0.180000       12.0110           0
     16958 MEMB     135      PMPE     H13X     HAL2     0.900000E-01   1.00800           0
     16959 MEMB     135      PMPE     H13Y     HAL2     0.900000E-01   1.00800           0
     16960 MEMB     135      PMPE     C314     CTL2    -0.180000       12.0110           0
     16961 MEMB     135      PMPE     H14X     HAL2     0.900000E-01   1.00800           0
     16962 MEMB     135      PMPE     H14Y     HAL2     0.900000E-01   1.00800           0
     16963 MEMB     135      PMPE     C315     CTL2    -0.180000       12.0110           0
     16964 MEMB     135      PMPE     H15X     HAL2     0.900000E-01   1.00800           0
     16965 MEMB     135      PMPE     H15Y     HAL2     0.900000E-01   1.00800           0
     16966 MEMB     135      PMPE     C316     CTL3    -0.270000       12.0110           0
     16967 MEMB     135      PMPE     H16X     HAL3     0.900000E-01   1.00800           0
     16968 MEMB     135      PMPE     H16Y     HAL3     0.900000E-01   1.00800           0
     16969 MEMB     135      PMPE     H16Z     HAL3     0.900000E-01   1.00800           0
     16970 MEMB     136      OYPE     N        NH3L    -0.300000       14.0070           0
     16971 MEMB     136      OYPE     HN1      HCL      0.330000       1.00800           0
     16972 MEMB     136      OYPE     HN2      HCL      0.330000       1.00800           0
     16973 MEMB     136      OYPE     HN3      HCL      0.330000       1.00800           0
     16974 MEMB     136      OYPE     C12      CTL2     0.130000       12.0110           0
     16975 MEMB     136      OYPE     H12A     HAL2     0.900000E-01   1.00800           0
     16976 MEMB     136      OYPE     H12B     HAL2     0.900000E-01   1.00800           0
     16977 MEMB     136      OYPE     C11      CTL2    -0.800000E-01   12.0110           0
     16978 MEMB     136      OYPE     H11A     HAL2     0.900000E-01   1.00800           0
     16979 MEMB     136      OYPE     H11B     HAL2     0.900000E-01   1.00800           0
     16980 MEMB     136      OYPE     P        PL        1.50000       30.9740           0
     16981 MEMB     136      OYPE     O13      O2L     -0.780000       15.9994           0
     16982 MEMB     136      OYPE     O14      O2L     -0.780000       15.9994           0
     16983 MEMB     136      OYPE     O11      OSLP    -0.570000       15.9994           0
     16984 MEMB     136      OYPE     O12      OSLP    -0.570000       15.9994           0
     16985 MEMB     136      OYPE     C1       CTL2    -0.800000E-01   12.0110           0
     16986 MEMB     136      OYPE     HA       HAL2     0.900000E-01   1.00800           0
     16987 MEMB     136      OYPE     HB       HAL2     0.900000E-01   1.00800           0
     16988 MEMB     136      OYPE     C2       CTL1     0.170000       12.0110           0
     16989 MEMB     136      OYPE     HS       HAL1     0.900000E-01   1.00800           0
     16990 MEMB     136      OYPE     O21      OSL     -0.490000       15.9994           0
     16991 MEMB     136      OYPE     C21      CL       0.900000       12.0110           0
     16992 MEMB     136      OYPE     O22      OBL     -0.630000       15.9994           0
     16993 MEMB     136      OYPE     C22      CTL2    -0.220000       12.0110           0
     16994 MEMB     136      OYPE     H2R      HAL2     0.900000E-01   1.00800           0
     16995 MEMB     136      OYPE     H2S      HAL2     0.900000E-01   1.00800           0
     16996 MEMB     136      OYPE     C3       CTL2     0.800000E-01   12.0110           0
     16997 MEMB     136      OYPE     HX       HAL2     0.900000E-01   1.00800           0
     16998 MEMB     136      OYPE     HY       HAL2     0.900000E-01   1.00800           0
     16999 MEMB     136      OYPE     O31      OSL     -0.490000       15.9994           0
     17000 MEMB     136      OYPE     C31      CL       0.900000       12.0110           0
     17001 MEMB     136      OYPE     O32      OBL     -0.630000       15.9994           0
     17002 MEMB     136      OYPE     C32      CTL2    -0.220000       12.0110           0
     17003 MEMB     136      OYPE     H2X      HAL2     0.900000E-01   1.00800           0
     17004 MEMB     136      OYPE     H2Y      HAL2     0.900000E-01   1.00800           0
     17005 MEMB     136      OYPE     C23      CTL2    -0.180000       12.0110           0
     17006 MEMB     136      OYPE     H3R      HAL2     0.900000E-01   1.00800           0
     17007 MEMB     136      OYPE     H3S      HAL2     0.900000E-01   1.00800           0
     17008 MEMB     136      OYPE     C24      CTL2    -0.180000       12.0110           0
     17009 MEMB     136      OYPE     H4R      HAL2     0.900000E-01   1.00800           0
     17010 MEMB     136      OYPE     H4S      HAL2     0.900000E-01   1.00800           0
     17011 MEMB     136      OYPE     C25      CTL2    -0.180000       12.0110           0
     17012 MEMB     136      OYPE     H5R      HAL2     0.900000E-01   1.00800           0
     17013 MEMB     136      OYPE     H5S      HAL2     0.900000E-01   1.00800           0
     17014 MEMB     136      OYPE     C26      CTL2    -0.180000       12.0110           0
     17015 MEMB     136      OYPE     H6R      HAL2     0.900000E-01   1.00800           0
     17016 MEMB     136      OYPE     H6S      HAL2     0.900000E-01   1.00800           0
     17017 MEMB     136      OYPE     C27      CTL2    -0.180000       12.0110           0
     17018 MEMB     136      OYPE     H7R      HAL2     0.900000E-01   1.00800           0
     17019 MEMB     136      OYPE     H7S      HAL2     0.900000E-01   1.00800           0
     17020 MEMB     136      OYPE     C28      CTL2    -0.180000       12.0110           0
     17021 MEMB     136      OYPE     H8R      HAL2     0.900000E-01   1.00800           0
     17022 MEMB     136      OYPE     H8S      HAL2     0.900000E-01   1.00800           0
     17023 MEMB     136      OYPE     C29      CEL1    -0.150000       12.0110           0
     17024 MEMB     136      OYPE     H9R      HEL1     0.150000       1.00800           0
     17025 MEMB     136      OYPE     C210     CEL1    -0.150000       12.0110           0
     17026 MEMB     136      OYPE     H10R     HEL1     0.150000       1.00800           0
     17027 MEMB     136      OYPE     C211     CTL2    -0.180000       12.0110           0
     17028 MEMB     136      OYPE     H11R     HAL2     0.900000E-01   1.00800           0
     17029 MEMB     136      OYPE     H11S     HAL2     0.900000E-01   1.00800           0
     17030 MEMB     136      OYPE     C212     CTL2    -0.180000       12.0110           0
     17031 MEMB     136      OYPE     H12R     HAL2     0.900000E-01   1.00800           0
     17032 MEMB     136      OYPE     H12S     HAL2     0.900000E-01   1.00800           0
     17033 MEMB     136      OYPE     C213     CTL2    -0.180000       12.0110           0
     17034 MEMB     136      OYPE     H13R     HAL2     0.900000E-01   1.00800           0
     17035 MEMB     136      OYPE     H13S     HAL2     0.900000E-01   1.00800           0
     17036 MEMB     136      OYPE     C214     CTL2    -0.180000       12.0110           0
     17037 MEMB     136      OYPE     H14R     HAL2     0.900000E-01   1.00800           0
     17038 MEMB     136      OYPE     H14S     HAL2     0.900000E-01   1.00800           0
     17039 MEMB     136      OYPE     C215     CTL2    -0.180000       12.0110           0
     17040 MEMB     136      OYPE     H15R     HAL2     0.900000E-01   1.00800           0
     17041 MEMB     136      OYPE     H15S     HAL2     0.900000E-01   1.00800           0
     17042 MEMB     136      OYPE     C216     CTL3    -0.270000       12.0110           0
     17043 MEMB     136      OYPE     H16R     HAL3     0.900000E-01   1.00800           0
     17044 MEMB     136      OYPE     H16S     HAL3     0.900000E-01   1.00800           0
     17045 MEMB     136      OYPE     H16T     HAL3     0.900000E-01   1.00800           0
     17046 MEMB     136      OYPE     C33      CTL2    -0.180000       12.0110           0
     17047 MEMB     136      OYPE     H3X      HAL2     0.900000E-01   1.00800           0
     17048 MEMB     136      OYPE     H3Y      HAL2     0.900000E-01   1.00800           0
     17049 MEMB     136      OYPE     C34      CTL2    -0.180000       12.0110           0
     17050 MEMB     136      OYPE     H4X      HAL2     0.900000E-01   1.00800           0
     17051 MEMB     136      OYPE     H4Y      HAL2     0.900000E-01   1.00800           0
     17052 MEMB     136      OYPE     C35      CTL2    -0.180000       12.0110           0
     17053 MEMB     136      OYPE     H5X      HAL2     0.900000E-01   1.00800           0
     17054 MEMB     136      OYPE     H5Y      HAL2     0.900000E-01   1.00800           0
     17055 MEMB     136      OYPE     C36      CTL2    -0.180000       12.0110           0
     17056 MEMB     136      OYPE     H6X      HAL2     0.900000E-01   1.00800           0
     17057 MEMB     136      OYPE     H6Y      HAL2     0.900000E-01   1.00800           0
     17058 MEMB     136      OYPE     C37      CTL2    -0.180000       12.0110           0
     17059 MEMB     136      OYPE     H7X      HAL2     0.900000E-01   1.00800           0
     17060 MEMB     136      OYPE     H7Y      HAL2     0.900000E-01   1.00800           0
     17061 MEMB     136      OYPE     C38      CTL2    -0.180000       12.0110           0
     17062 MEMB     136      OYPE     H8X      HAL2     0.900000E-01   1.00800           0
     17063 MEMB     136      OYPE     H8Y      HAL2     0.900000E-01   1.00800           0
     17064 MEMB     136      OYPE     C39      CEL1    -0.150000       12.0110           0
     17065 MEMB     136      OYPE     H9X      HEL1     0.150000       1.00800           0
     17066 MEMB     136      OYPE     C310     CEL1    -0.150000       12.0110           0
     17067 MEMB     136      OYPE     H10X     HEL1     0.150000       1.00800           0
     17068 MEMB     136      OYPE     C311     CTL2    -0.180000       12.0110           0
     17069 MEMB     136      OYPE     H11X     HAL2     0.900000E-01   1.00800           0
     17070 MEMB     136      OYPE     H11Y     HAL2     0.900000E-01   1.00800           0
     17071 MEMB     136      OYPE     C312     CTL2    -0.180000       12.0110           0
     17072 MEMB     136      OYPE     H12X     HAL2     0.900000E-01   1.00800           0
     17073 MEMB     136      OYPE     H12Y     HAL2     0.900000E-01   1.00800           0
     17074 MEMB     136      OYPE     C313     CTL2    -0.180000       12.0110           0
     17075 MEMB     136      OYPE     H13X     HAL2     0.900000E-01   1.00800           0
     17076 MEMB     136      OYPE     H13Y     HAL2     0.900000E-01   1.00800           0
     17077 MEMB     136      OYPE     C314     CTL2    -0.180000       12.0110           0
     17078 MEMB     136      OYPE     H14X     HAL2     0.900000E-01   1.00800           0
     17079 MEMB     136      OYPE     H14Y     HAL2     0.900000E-01   1.00800           0
     17080 MEMB     136      OYPE     C315     CTL2    -0.180000       12.0110           0
     17081 MEMB     136      OYPE     H15X     HAL2     0.900000E-01   1.00800           0
     17082 MEMB     136      OYPE     H15Y     HAL2     0.900000E-01   1.00800           0
     17083 MEMB     136      OYPE     C316     CTL2    -0.180000       12.0110           0
     17084 MEMB     136      OYPE     H16X     HAL2     0.900000E-01   1.00800           0
     17085 MEMB     136      OYPE     H16Y     HAL2     0.900000E-01   1.00800           0
     17086 MEMB     136      OYPE     C317     CTL2    -0.180000       12.0110           0
     17087 MEMB     136      OYPE     H17X     HAL2     0.900000E-01   1.00800           0
     17088 MEMB     136      OYPE     H17Y     HAL2     0.900000E-01   1.00800           0
     17089 MEMB     136      OYPE     C318     CTL3    -0.270000       12.0110           0
     17090 MEMB     136      OYPE     H18X     HAL3     0.900000E-01   1.00800           0
     17091 MEMB     136      OYPE     H18Y     HAL3     0.900000E-01   1.00800           0
     17092 MEMB     136      OYPE     H18Z     HAL3     0.900000E-01   1.00800           0
     17093 MEMB     137      PYPG     C13      CTL2     0.500000E-01   12.0110           0
     17094 MEMB     137      PYPG     H13A     HAL2     0.900000E-01   1.00800           0
     17095 MEMB     137      PYPG     H13B     HAL2     0.900000E-01   1.00800           0
     17096 MEMB     137      PYPG     OC3      OHL     -0.660000       15.9994           0
     17097 MEMB     137      PYPG     HO3      HOL      0.430000       1.00800           0
     17098 MEMB     137      PYPG     C12      CTL1     0.140000       12.0110           0
     17099 MEMB     137      PYPG     H12A     HAL1     0.900000E-01   1.00800           0
     17100 MEMB     137      PYPG     OC2      OHL     -0.660000       15.9994           0
     17101 MEMB     137      PYPG     HO2      HOL      0.430000       1.00800           0
     17102 MEMB     137      PYPG     C11      CTL2    -0.800000E-01   12.0110           0
     17103 MEMB     137      PYPG     H11A     HAL2     0.900000E-01   1.00800           0
     17104 MEMB     137      PYPG     H11B     HAL2     0.900000E-01   1.00800           0
     17105 MEMB     137      PYPG     P        PL        1.50000       30.9740           0
     17106 MEMB     137      PYPG     O13      O2L     -0.780000       15.9994           0
     17107 MEMB     137      PYPG     O14      O2L     -0.780000       15.9994           0
     17108 MEMB     137      PYPG     O11      OSLP    -0.570000       15.9994           0
     17109 MEMB     137      PYPG     O12      OSLP    -0.570000       15.9994           0
     17110 MEMB     137      PYPG     C1       CTL2    -0.800000E-01   12.0110           0
     17111 MEMB     137      PYPG     HA       HAL2     0.900000E-01   1.00800           0
     17112 MEMB     137      PYPG     HB       HAL2     0.900000E-01   1.00800           0
     17113 MEMB     137      PYPG     C2       CTL1     0.170000       12.0110           0
     17114 MEMB     137      PYPG     HS       HAL1     0.900000E-01   1.00800           0
     17115 MEMB     137      PYPG     O21      OSL     -0.490000       15.9994           0
     17116 MEMB     137      PYPG     C21      CL       0.900000       12.0110           0
     17117 MEMB     137      PYPG     O22      OBL     -0.630000       15.9994           0
     17118 MEMB     137      PYPG     C22      CTL2    -0.220000       12.0110           0
     17119 MEMB     137      PYPG     H2R      HAL2     0.900000E-01   1.00800           0
     17120 MEMB     137      PYPG     H2S      HAL2     0.900000E-01   1.00800           0
     17121 MEMB     137      PYPG     C3       CTL2     0.800000E-01   12.0110           0
     17122 MEMB     137      PYPG     HX       HAL2     0.900000E-01   1.00800           0
     17123 MEMB     137      PYPG     HY       HAL2     0.900000E-01   1.00800           0
     17124 MEMB     137      PYPG     O31      OSL     -0.490000       15.9994           0
     17125 MEMB     137      PYPG     C31      CL       0.900000       12.0110           0
     17126 MEMB     137      PYPG     O32      OBL     -0.630000       15.9994           0
     17127 MEMB     137      PYPG     C32      CTL2    -0.220000       12.0110           0
     17128 MEMB     137      PYPG     H2X      HAL2     0.900000E-01   1.00800           0
     17129 MEMB     137      PYPG     H2Y      HAL2     0.900000E-01   1.00800           0
     17130 MEMB     137      PYPG     C23      CTL2    -0.180000       12.0110           0
     17131 MEMB     137      PYPG     H3R      HAL2     0.900000E-01   1.00800           0
     17132 MEMB     137      PYPG     H3S      HAL2     0.900000E-01   1.00800           0
     17133 MEMB     137      PYPG     C24      CTL2    -0.180000       12.0110           0
     17134 MEMB     137      PYPG     H4R      HAL2     0.900000E-01   1.00800           0
     17135 MEMB     137      PYPG     H4S      HAL2     0.900000E-01   1.00800           0
     17136 MEMB     137      PYPG     C25      CTL2    -0.180000       12.0110           0
     17137 MEMB     137      PYPG     H5R      HAL2     0.900000E-01   1.00800           0
     17138 MEMB     137      PYPG     H5S      HAL2     0.900000E-01   1.00800           0
     17139 MEMB     137      PYPG     C26      CTL2    -0.180000       12.0110           0
     17140 MEMB     137      PYPG     H6R      HAL2     0.900000E-01   1.00800           0
     17141 MEMB     137      PYPG     H6S      HAL2     0.900000E-01   1.00800           0
     17142 MEMB     137      PYPG     C27      CTL2    -0.180000       12.0110           0
     17143 MEMB     137      PYPG     H7R      HAL2     0.900000E-01   1.00800           0
     17144 MEMB     137      PYPG     H7S      HAL2     0.900000E-01   1.00800           0
     17145 MEMB     137      PYPG     C28      CTL2    -0.180000       12.0110           0
     17146 MEMB     137      PYPG     H8R      HAL2     0.900000E-01   1.00800           0
     17147 MEMB     137      PYPG     H8S      HAL2     0.900000E-01   1.00800           0
     17148 MEMB     137      PYPG     C29      CEL1    -0.150000       12.0110           0
     17149 MEMB     137      PYPG     H9R      HEL1     0.150000       1.00800           0
     17150 MEMB     137      PYPG     C210     CEL1    -0.150000       12.0110           0
     17151 MEMB     137      PYPG     H10R     HEL1     0.150000       1.00800           0
     17152 MEMB     137      PYPG     C211     CTL2    -0.180000       12.0110           0
     17153 MEMB     137      PYPG     H11R     HAL2     0.900000E-01   1.00800           0
     17154 MEMB     137      PYPG     H11S     HAL2     0.900000E-01   1.00800           0
     17155 MEMB     137      PYPG     C212     CTL2    -0.180000       12.0110           0
     17156 MEMB     137      PYPG     H12R     HAL2     0.900000E-01   1.00800           0
     17157 MEMB     137      PYPG     H12S     HAL2     0.900000E-01   1.00800           0
     17158 MEMB     137      PYPG     C213     CTL2    -0.180000       12.0110           0
     17159 MEMB     137      PYPG     H13R     HAL2     0.900000E-01   1.00800           0
     17160 MEMB     137      PYPG     H13S     HAL2     0.900000E-01   1.00800           0
     17161 MEMB     137      PYPG     C214     CTL2    -0.180000       12.0110           0
     17162 MEMB     137      PYPG     H14R     HAL2     0.900000E-01   1.00800           0
     17163 MEMB     137      PYPG     H14S     HAL2     0.900000E-01   1.00800           0
     17164 MEMB     137      PYPG     C215     CTL2    -0.180000       12.0110           0
     17165 MEMB     137      PYPG     H15R     HAL2     0.900000E-01   1.00800           0
     17166 MEMB     137      PYPG     H15S     HAL2     0.900000E-01   1.00800           0
     17167 MEMB     137      PYPG     C216     CTL3    -0.270000       12.0110           0
     17168 MEMB     137      PYPG     H16R     HAL3     0.900000E-01   1.00800           0
     17169 MEMB     137      PYPG     H16S     HAL3     0.900000E-01   1.00800           0
     17170 MEMB     137      PYPG     H16T     HAL3     0.900000E-01   1.00800           0
     17171 MEMB     137      PYPG     C33      CTL2    -0.180000       12.0110           0
     17172 MEMB     137      PYPG     H3X      HAL2     0.900000E-01   1.00800           0
     17173 MEMB     137      PYPG     H3Y      HAL2     0.900000E-01   1.00800           0
     17174 MEMB     137      PYPG     C34      CTL2    -0.180000       12.0110           0
     17175 MEMB     137      PYPG     H4X      HAL2     0.900000E-01   1.00800           0
     17176 MEMB     137      PYPG     H4Y      HAL2     0.900000E-01   1.00800           0
     17177 MEMB     137      PYPG     C35      CTL2    -0.180000       12.0110           0
     17178 MEMB     137      PYPG     H5X      HAL2     0.900000E-01   1.00800           0
     17179 MEMB     137      PYPG     H5Y      HAL2     0.900000E-01   1.00800           0
     17180 MEMB     137      PYPG     C36      CTL2    -0.180000       12.0110           0
     17181 MEMB     137      PYPG     H6X      HAL2     0.900000E-01   1.00800           0
     17182 MEMB     137      PYPG     H6Y      HAL2     0.900000E-01   1.00800           0
     17183 MEMB     137      PYPG     C37      CTL2    -0.180000       12.0110           0
     17184 MEMB     137      PYPG     H7X      HAL2     0.900000E-01   1.00800           0
     17185 MEMB     137      PYPG     H7Y      HAL2     0.900000E-01   1.00800           0
     17186 MEMB     137      PYPG     C38      CTL2    -0.180000       12.0110           0
     17187 MEMB     137      PYPG     H8X      HAL2     0.900000E-01   1.00800           0
     17188 MEMB     137      PYPG     H8Y      HAL2     0.900000E-01   1.00800           0
     17189 MEMB     137      PYPG     C39      CTL2    -0.180000       12.0110           0
     17190 MEMB     137      PYPG     H9X      HAL2     0.900000E-01   1.00800           0
     17191 MEMB     137      PYPG     H9Y      HAL2     0.900000E-01   1.00800           0
     17192 MEMB     137      PYPG     C310     CTL2    -0.180000       12.0110           0
     17193 MEMB     137      PYPG     H10X     HAL2     0.900000E-01   1.00800           0
     17194 MEMB     137      PYPG     H10Y     HAL2     0.900000E-01   1.00800           0
     17195 MEMB     137      PYPG     C311     CTL2    -0.180000       12.0110           0
     17196 MEMB     137      PYPG     H11X     HAL2     0.900000E-01   1.00800           0
     17197 MEMB     137      PYPG     H11Y     HAL2     0.900000E-01   1.00800           0
     17198 MEMB     137      PYPG     C312     CTL2    -0.180000       12.0110           0
     17199 MEMB     137      PYPG     H12X     HAL2     0.900000E-01   1.00800           0
     17200 MEMB     137      PYPG     H12Y     HAL2     0.900000E-01   1.00800           0
     17201 MEMB     137      PYPG     C313     CTL2    -0.180000       12.0110           0
     17202 MEMB     137      PYPG     H13X     HAL2     0.900000E-01   1.00800           0
     17203 MEMB     137      PYPG     H13Y     HAL2     0.900000E-01   1.00800           0
     17204 MEMB     137      PYPG     C314     CTL2    -0.180000       12.0110           0
     17205 MEMB     137      PYPG     H14X     HAL2     0.900000E-01   1.00800           0
     17206 MEMB     137      PYPG     H14Y     HAL2     0.900000E-01   1.00800           0
     17207 MEMB     137      PYPG     C315     CTL2    -0.180000       12.0110           0
     17208 MEMB     137      PYPG     H15X     HAL2     0.900000E-01   1.00800           0
     17209 MEMB     137      PYPG     H15Y     HAL2     0.900000E-01   1.00800           0
     17210 MEMB     137      PYPG     C316     CTL3    -0.270000       12.0110           0
     17211 MEMB     137      PYPG     H16X     HAL3     0.900000E-01   1.00800           0
     17212 MEMB     137      PYPG     H16Y     HAL3     0.900000E-01   1.00800           0
     17213 MEMB     137      PYPG     H16Z     HAL3     0.900000E-01   1.00800           0
     17214 MEMB     138      PMPE     N        NH3L    -0.300000       14.0070           0
     17215 MEMB     138      PMPE     HN1      HCL      0.330000       1.00800           0
     17216 MEMB     138      PMPE     HN2      HCL      0.330000       1.00800           0
     17217 MEMB     138      PMPE     HN3      HCL      0.330000       1.00800           0
     17218 MEMB     138      PMPE     C12      CTL2     0.130000       12.0110           0
     17219 MEMB     138      PMPE     H12A     HAL2     0.900000E-01   1.00800           0
     17220 MEMB     138      PMPE     H12B     HAL2     0.900000E-01   1.00800           0
     17221 MEMB     138      PMPE     C11      CTL2    -0.800000E-01   12.0110           0
     17222 MEMB     138      PMPE     H11A     HAL2     0.900000E-01   1.00800           0
     17223 MEMB     138      PMPE     H11B     HAL2     0.900000E-01   1.00800           0
     17224 MEMB     138      PMPE     P        PL        1.50000       30.9740           0
     17225 MEMB     138      PMPE     O13      O2L     -0.780000       15.9994           0
     17226 MEMB     138      PMPE     O14      O2L     -0.780000       15.9994           0
     17227 MEMB     138      PMPE     O11      OSLP    -0.570000       15.9994           0
     17228 MEMB     138      PMPE     O12      OSLP    -0.570000       15.9994           0
     17229 MEMB     138      PMPE     C1       CTL2    -0.800000E-01   12.0110           0
     17230 MEMB     138      PMPE     HA       HAL2     0.900000E-01   1.00800           0
     17231 MEMB     138      PMPE     HB       HAL2     0.900000E-01   1.00800           0
     17232 MEMB     138      PMPE     C2       CTL1     0.170000       12.0110           0
     17233 MEMB     138      PMPE     HS       HAL1     0.900000E-01   1.00800           0
     17234 MEMB     138      PMPE     O21      OSL     -0.490000       15.9994           0
     17235 MEMB     138      PMPE     C21      CL       0.900000       12.0110           0
     17236 MEMB     138      PMPE     O22      OBL     -0.630000       15.9994           0
     17237 MEMB     138      PMPE     C22      CTL2    -0.220000       12.0110           0
     17238 MEMB     138      PMPE     H2R      HAL2     0.900000E-01   1.00800           0
     17239 MEMB     138      PMPE     H2S      HAL2     0.900000E-01   1.00800           0
     17240 MEMB     138      PMPE     C3       CTL2     0.800000E-01   12.0110           0
     17241 MEMB     138      PMPE     HX       HAL2     0.900000E-01   1.00800           0
     17242 MEMB     138      PMPE     HY       HAL2     0.900000E-01   1.00800           0
     17243 MEMB     138      PMPE     O31      OSL     -0.490000       15.9994           0
     17244 MEMB     138      PMPE     C31      CL       0.900000       12.0110           0
     17245 MEMB     138      PMPE     O32      OBL     -0.630000       15.9994           0
     17246 MEMB     138      PMPE     C32      CTL2    -0.220000       12.0110           0
     17247 MEMB     138      PMPE     H2X      HAL2     0.900000E-01   1.00800           0
     17248 MEMB     138      PMPE     H2Y      HAL2     0.900000E-01   1.00800           0
     17249 MEMB     138      PMPE     C23      CTL2    -0.180000       12.0110           0
     17250 MEMB     138      PMPE     H3R      HAL2     0.900000E-01   1.00800           0
     17251 MEMB     138      PMPE     H3S      HAL2     0.900000E-01   1.00800           0
     17252 MEMB     138      PMPE     C24      CTL2    -0.180000       12.0110           0
     17253 MEMB     138      PMPE     H4R      HAL2     0.900000E-01   1.00800           0
     17254 MEMB     138      PMPE     H4S      HAL2     0.900000E-01   1.00800           0
     17255 MEMB     138      PMPE     C25      CTL2    -0.180000       12.0110           0
     17256 MEMB     138      PMPE     H5R      HAL2     0.900000E-01   1.00800           0
     17257 MEMB     138      PMPE     H5S      HAL2     0.900000E-01   1.00800           0
     17258 MEMB     138      PMPE     C26      CTL2    -0.180000       12.0110           0
     17259 MEMB     138      PMPE     H6R      HAL2     0.900000E-01   1.00800           0
     17260 MEMB     138      PMPE     H6S      HAL2     0.900000E-01   1.00800           0
     17261 MEMB     138      PMPE     C27      CTL2    -0.180000       12.0110           0
     17262 MEMB     138      PMPE     H7R      HAL2     0.900000E-01   1.00800           0
     17263 MEMB     138      PMPE     H7S      HAL2     0.900000E-01   1.00800           0
     17264 MEMB     138      PMPE     C28      CTL2    -0.180000       12.0110           0
     17265 MEMB     138      PMPE     H8R      HAL2     0.900000E-01   1.00800           0
     17266 MEMB     138      PMPE     H8S      HAL2     0.900000E-01   1.00800           0
     17267 MEMB     138      PMPE     C29      CG3RC1  -0.900000E-01   12.0110           0
     17268 MEMB     138      PMPE     H9R      HGA1     0.900000E-01   1.00800           0
     17269 MEMB     138      PMPE     C217     CG3C31  -0.180000       12.0110           0
     17270 MEMB     138      PMPE     H17R     HGA2     0.900000E-01   1.00800           0
     17271 MEMB     138      PMPE     H17S     HGA2     0.900000E-01   1.00800           0
     17272 MEMB     138      PMPE     C210     CG3RC1  -0.900000E-01   12.0110           0
     17273 MEMB     138      PMPE     H10R     HGA1     0.900000E-01   1.00800           0
     17274 MEMB     138      PMPE     C211     CTL2    -0.180000       12.0110           0
     17275 MEMB     138      PMPE     H11R     HAL2     0.900000E-01   1.00800           0
     17276 MEMB     138      PMPE     H11S     HAL2     0.900000E-01   1.00800           0
     17277 MEMB     138      PMPE     C212     CTL2    -0.180000       12.0110           0
     17278 MEMB     138      PMPE     H12R     HAL2     0.900000E-01   1.00800           0
     17279 MEMB     138      PMPE     H12S     HAL2     0.900000E-01   1.00800           0
     17280 MEMB     138      PMPE     C213     CTL2    -0.180000       12.0110           0
     17281 MEMB     138      PMPE     H13R     HAL2     0.900000E-01   1.00800           0
     17282 MEMB     138      PMPE     H13S     HAL2     0.900000E-01   1.00800           0
     17283 MEMB     138      PMPE     C214     CTL2    -0.180000       12.0110           0
     17284 MEMB     138      PMPE     H14R     HAL2     0.900000E-01   1.00800           0
     17285 MEMB     138      PMPE     H14S     HAL2     0.900000E-01   1.00800           0
     17286 MEMB     138      PMPE     C215     CTL2    -0.180000       12.0110           0
     17287 MEMB     138      PMPE     H15R     HAL2     0.900000E-01   1.00800           0
     17288 MEMB     138      PMPE     H15S     HAL2     0.900000E-01   1.00800           0
     17289 MEMB     138      PMPE     C216     CTL3    -0.270000       12.0110           0
     17290 MEMB     138      PMPE     H16R     HAL3     0.900000E-01   1.00800           0
     17291 MEMB     138      PMPE     H16S     HAL3     0.900000E-01   1.00800           0
     17292 MEMB     138      PMPE     H16T     HAL3     0.900000E-01   1.00800           0
     17293 MEMB     138      PMPE     C33      CTL2    -0.180000       12.0110           0
     17294 MEMB     138      PMPE     H3X      HAL2     0.900000E-01   1.00800           0
     17295 MEMB     138      PMPE     H3Y      HAL2     0.900000E-01   1.00800           0
     17296 MEMB     138      PMPE     C34      CTL2    -0.180000       12.0110           0
     17297 MEMB     138      PMPE     H4X      HAL2     0.900000E-01   1.00800           0
     17298 MEMB     138      PMPE     H4Y      HAL2     0.900000E-01   1.00800           0
     17299 MEMB     138      PMPE     C35      CTL2    -0.180000       12.0110           0
     17300 MEMB     138      PMPE     H5X      HAL2     0.900000E-01   1.00800           0
     17301 MEMB     138      PMPE     H5Y      HAL2     0.900000E-01   1.00800           0
     17302 MEMB     138      PMPE     C36      CTL2    -0.180000       12.0110           0
     17303 MEMB     138      PMPE     H6X      HAL2     0.900000E-01   1.00800           0
     17304 MEMB     138      PMPE     H6Y      HAL2     0.900000E-01   1.00800           0
     17305 MEMB     138      PMPE     C37      CTL2    -0.180000       12.0110           0
     17306 MEMB     138      PMPE     H7X      HAL2     0.900000E-01   1.00800           0
     17307 MEMB     138      PMPE     H7Y      HAL2     0.900000E-01   1.00800           0
     17308 MEMB     138      PMPE     C38      CTL2    -0.180000       12.0110           0
     17309 MEMB     138      PMPE     H8X      HAL2     0.900000E-01   1.00800           0
     17310 MEMB     138      PMPE     H8Y      HAL2     0.900000E-01   1.00800           0
     17311 MEMB     138      PMPE     C39      CTL2    -0.180000       12.0110           0
     17312 MEMB     138      PMPE     H9X      HAL2     0.900000E-01   1.00800           0
     17313 MEMB     138      PMPE     H9Y      HAL2     0.900000E-01   1.00800           0
     17314 MEMB     138      PMPE     C310     CTL2    -0.180000       12.0110           0
     17315 MEMB     138      PMPE     H10X     HAL2     0.900000E-01   1.00800           0
     17316 MEMB     138      PMPE     H10Y     HAL2     0.900000E-01   1.00800           0
     17317 MEMB     138      PMPE     C311     CTL2    -0.180000       12.0110           0
     17318 MEMB     138      PMPE     H11X     HAL2     0.900000E-01   1.00800           0
     17319 MEMB     138      PMPE     H11Y     HAL2     0.900000E-01   1.00800           0
     17320 MEMB     138      PMPE     C312     CTL2    -0.180000       12.0110           0
     17321 MEMB     138      PMPE     H12X     HAL2     0.900000E-01   1.00800           0
     17322 MEMB     138      PMPE     H12Y     HAL2     0.900000E-01   1.00800           0
     17323 MEMB     138      PMPE     C313     CTL2    -0.180000       12.0110           0
     17324 MEMB     138      PMPE     H13X     HAL2     0.900000E-01   1.00800           0
     17325 MEMB     138      PMPE     H13Y     HAL2     0.900000E-01   1.00800           0
     17326 MEMB     138      PMPE     C314     CTL2    -0.180000       12.0110           0
     17327 MEMB     138      PMPE     H14X     HAL2     0.900000E-01   1.00800           0
     17328 MEMB     138      PMPE     H14Y     HAL2     0.900000E-01   1.00800           0
     17329 MEMB     138      PMPE     C315     CTL2    -0.180000       12.0110           0
     17330 MEMB     138      PMPE     H15X     HAL2     0.900000E-01   1.00800           0
     17331 MEMB     138      PMPE     H15Y     HAL2     0.900000E-01   1.00800           0
     17332 MEMB     138      PMPE     C316     CTL3    -0.270000       12.0110           0
     17333 MEMB     138      PMPE     H16X     HAL3     0.900000E-01   1.00800           0
     17334 MEMB     138      PMPE     H16Y     HAL3     0.900000E-01   1.00800           0
     17335 MEMB     138      PMPE     H16Z     HAL3     0.900000E-01   1.00800           0
     17336 MEMB     139      PYPG     C13      CTL2     0.500000E-01   12.0110           0
     17337 MEMB     139      PYPG     H13A     HAL2     0.900000E-01   1.00800           0
     17338 MEMB     139      PYPG     H13B     HAL2     0.900000E-01   1.00800           0
     17339 MEMB     139      PYPG     OC3      OHL     -0.660000       15.9994           0
     17340 MEMB     139      PYPG     HO3      HOL      0.430000       1.00800           0
     17341 MEMB     139      PYPG     C12      CTL1     0.140000       12.0110           0
     17342 MEMB     139      PYPG     H12A     HAL1     0.900000E-01   1.00800           0
     17343 MEMB     139      PYPG     OC2      OHL     -0.660000       15.9994           0
     17344 MEMB     139      PYPG     HO2      HOL      0.430000       1.00800           0
     17345 MEMB     139      PYPG     C11      CTL2    -0.800000E-01   12.0110           0
     17346 MEMB     139      PYPG     H11A     HAL2     0.900000E-01   1.00800           0
     17347 MEMB     139      PYPG     H11B     HAL2     0.900000E-01   1.00800           0
     17348 MEMB     139      PYPG     P        PL        1.50000       30.9740           0
     17349 MEMB     139      PYPG     O13      O2L     -0.780000       15.9994           0
     17350 MEMB     139      PYPG     O14      O2L     -0.780000       15.9994           0
     17351 MEMB     139      PYPG     O11      OSLP    -0.570000       15.9994           0
     17352 MEMB     139      PYPG     O12      OSLP    -0.570000       15.9994           0
     17353 MEMB     139      PYPG     C1       CTL2    -0.800000E-01   12.0110           0
     17354 MEMB     139      PYPG     HA       HAL2     0.900000E-01   1.00800           0
     17355 MEMB     139      PYPG     HB       HAL2     0.900000E-01   1.00800           0
     17356 MEMB     139      PYPG     C2       CTL1     0.170000       12.0110           0
     17357 MEMB     139      PYPG     HS       HAL1     0.900000E-01   1.00800           0
     17358 MEMB     139      PYPG     O21      OSL     -0.490000       15.9994           0
     17359 MEMB     139      PYPG     C21      CL       0.900000       12.0110           0
     17360 MEMB     139      PYPG     O22      OBL     -0.630000       15.9994           0
     17361 MEMB     139      PYPG     C22      CTL2    -0.220000       12.0110           0
     17362 MEMB     139      PYPG     H2R      HAL2     0.900000E-01   1.00800           0
     17363 MEMB     139      PYPG     H2S      HAL2     0.900000E-01   1.00800           0
     17364 MEMB     139      PYPG     C3       CTL2     0.800000E-01   12.0110           0
     17365 MEMB     139      PYPG     HX       HAL2     0.900000E-01   1.00800           0
     17366 MEMB     139      PYPG     HY       HAL2     0.900000E-01   1.00800           0
     17367 MEMB     139      PYPG     O31      OSL     -0.490000       15.9994           0
     17368 MEMB     139      PYPG     C31      CL       0.900000       12.0110           0
     17369 MEMB     139      PYPG     O32      OBL     -0.630000       15.9994           0
     17370 MEMB     139      PYPG     C32      CTL2    -0.220000       12.0110           0
     17371 MEMB     139      PYPG     H2X      HAL2     0.900000E-01   1.00800           0
     17372 MEMB     139      PYPG     H2Y      HAL2     0.900000E-01   1.00800           0
     17373 MEMB     139      PYPG     C23      CTL2    -0.180000       12.0110           0
     17374 MEMB     139      PYPG     H3R      HAL2     0.900000E-01   1.00800           0
     17375 MEMB     139      PYPG     H3S      HAL2     0.900000E-01   1.00800           0
     17376 MEMB     139      PYPG     C24      CTL2    -0.180000       12.0110           0
     17377 MEMB     139      PYPG     H4R      HAL2     0.900000E-01   1.00800           0
     17378 MEMB     139      PYPG     H4S      HAL2     0.900000E-01   1.00800           0
     17379 MEMB     139      PYPG     C25      CTL2    -0.180000       12.0110           0
     17380 MEMB     139      PYPG     H5R      HAL2     0.900000E-01   1.00800           0
     17381 MEMB     139      PYPG     H5S      HAL2     0.900000E-01   1.00800           0
     17382 MEMB     139      PYPG     C26      CTL2    -0.180000       12.0110           0
     17383 MEMB     139      PYPG     H6R      HAL2     0.900000E-01   1.00800           0
     17384 MEMB     139      PYPG     H6S      HAL2     0.900000E-01   1.00800           0
     17385 MEMB     139      PYPG     C27      CTL2    -0.180000       12.0110           0
     17386 MEMB     139      PYPG     H7R      HAL2     0.900000E-01   1.00800           0
     17387 MEMB     139      PYPG     H7S      HAL2     0.900000E-01   1.00800           0
     17388 MEMB     139      PYPG     C28      CTL2    -0.180000       12.0110           0
     17389 MEMB     139      PYPG     H8R      HAL2     0.900000E-01   1.00800           0
     17390 MEMB     139      PYPG     H8S      HAL2     0.900000E-01   1.00800           0
     17391 MEMB     139      PYPG     C29      CEL1    -0.150000       12.0110           0
     17392 MEMB     139      PYPG     H9R      HEL1     0.150000       1.00800           0
     17393 MEMB     139      PYPG     C210     CEL1    -0.150000       12.0110           0
     17394 MEMB     139      PYPG     H10R     HEL1     0.150000       1.00800           0
     17395 MEMB     139      PYPG     C211     CTL2    -0.180000       12.0110           0
     17396 MEMB     139      PYPG     H11R     HAL2     0.900000E-01   1.00800           0
     17397 MEMB     139      PYPG     H11S     HAL2     0.900000E-01   1.00800           0
     17398 MEMB     139      PYPG     C212     CTL2    -0.180000       12.0110           0
     17399 MEMB     139      PYPG     H12R     HAL2     0.900000E-01   1.00800           0
     17400 MEMB     139      PYPG     H12S     HAL2     0.900000E-01   1.00800           0
     17401 MEMB     139      PYPG     C213     CTL2    -0.180000       12.0110           0
     17402 MEMB     139      PYPG     H13R     HAL2     0.900000E-01   1.00800           0
     17403 MEMB     139      PYPG     H13S     HAL2     0.900000E-01   1.00800           0
     17404 MEMB     139      PYPG     C214     CTL2    -0.180000       12.0110           0
     17405 MEMB     139      PYPG     H14R     HAL2     0.900000E-01   1.00800           0
     17406 MEMB     139      PYPG     H14S     HAL2     0.900000E-01   1.00800           0
     17407 MEMB     139      PYPG     C215     CTL2    -0.180000       12.0110           0
     17408 MEMB     139      PYPG     H15R     HAL2     0.900000E-01   1.00800           0
     17409 MEMB     139      PYPG     H15S     HAL2     0.900000E-01   1.00800           0
     17410 MEMB     139      PYPG     C216     CTL3    -0.270000       12.0110           0
     17411 MEMB     139      PYPG     H16R     HAL3     0.900000E-01   1.00800           0
     17412 MEMB     139      PYPG     H16S     HAL3     0.900000E-01   1.00800           0
     17413 MEMB     139      PYPG     H16T     HAL3     0.900000E-01   1.00800           0
     17414 MEMB     139      PYPG     C33      CTL2    -0.180000       12.0110           0
     17415 MEMB     139      PYPG     H3X      HAL2     0.900000E-01   1.00800           0
     17416 MEMB     139      PYPG     H3Y      HAL2     0.900000E-01   1.00800           0
     17417 MEMB     139      PYPG     C34      CTL2    -0.180000       12.0110           0
     17418 MEMB     139      PYPG     H4X      HAL2     0.900000E-01   1.00800           0
     17419 MEMB     139      PYPG     H4Y      HAL2     0.900000E-01   1.00800           0
     17420 MEMB     139      PYPG     C35      CTL2    -0.180000       12.0110           0
     17421 MEMB     139      PYPG     H5X      HAL2     0.900000E-01   1.00800           0
     17422 MEMB     139      PYPG     H5Y      HAL2     0.900000E-01   1.00800           0
     17423 MEMB     139      PYPG     C36      CTL2    -0.180000       12.0110           0
     17424 MEMB     139      PYPG     H6X      HAL2     0.900000E-01   1.00800           0
     17425 MEMB     139      PYPG     H6Y      HAL2     0.900000E-01   1.00800           0
     17426 MEMB     139      PYPG     C37      CTL2    -0.180000       12.0110           0
     17427 MEMB     139      PYPG     H7X      HAL2     0.900000E-01   1.00800           0
     17428 MEMB     139      PYPG     H7Y      HAL2     0.900000E-01   1.00800           0
     17429 MEMB     139      PYPG     C38      CTL2    -0.180000       12.0110           0
     17430 MEMB     139      PYPG     H8X      HAL2     0.900000E-01   1.00800           0
     17431 MEMB     139      PYPG     H8Y      HAL2     0.900000E-01   1.00800           0
     17432 MEMB     139      PYPG     C39      CTL2    -0.180000       12.0110           0
     17433 MEMB     139      PYPG     H9X      HAL2     0.900000E-01   1.00800           0
     17434 MEMB     139      PYPG     H9Y      HAL2     0.900000E-01   1.00800           0
     17435 MEMB     139      PYPG     C310     CTL2    -0.180000       12.0110           0
     17436 MEMB     139      PYPG     H10X     HAL2     0.900000E-01   1.00800           0
     17437 MEMB     139      PYPG     H10Y     HAL2     0.900000E-01   1.00800           0
     17438 MEMB     139      PYPG     C311     CTL2    -0.180000       12.0110           0
     17439 MEMB     139      PYPG     H11X     HAL2     0.900000E-01   1.00800           0
     17440 MEMB     139      PYPG     H11Y     HAL2     0.900000E-01   1.00800           0
     17441 MEMB     139      PYPG     C312     CTL2    -0.180000       12.0110           0
     17442 MEMB     139      PYPG     H12X     HAL2     0.900000E-01   1.00800           0
     17443 MEMB     139      PYPG     H12Y     HAL2     0.900000E-01   1.00800           0
     17444 MEMB     139      PYPG     C313     CTL2    -0.180000       12.0110           0
     17445 MEMB     139      PYPG     H13X     HAL2     0.900000E-01   1.00800           0
     17446 MEMB     139      PYPG     H13Y     HAL2     0.900000E-01   1.00800           0
     17447 MEMB     139      PYPG     C314     CTL2    -0.180000       12.0110           0
     17448 MEMB     139      PYPG     H14X     HAL2     0.900000E-01   1.00800           0
     17449 MEMB     139      PYPG     H14Y     HAL2     0.900000E-01   1.00800           0
     17450 MEMB     139      PYPG     C315     CTL2    -0.180000       12.0110           0
     17451 MEMB     139      PYPG     H15X     HAL2     0.900000E-01   1.00800           0
     17452 MEMB     139      PYPG     H15Y     HAL2     0.900000E-01   1.00800           0
     17453 MEMB     139      PYPG     C316     CTL3    -0.270000       12.0110           0
     17454 MEMB     139      PYPG     H16X     HAL3     0.900000E-01   1.00800           0
     17455 MEMB     139      PYPG     H16Y     HAL3     0.900000E-01   1.00800           0
     17456 MEMB     139      PYPG     H16Z     HAL3     0.900000E-01   1.00800           0
     17457 MEMB     140      PMPG     C13      CTL2     0.500000E-01   12.0110           0
     17458 MEMB     140      PMPG     H13A     HAL2     0.900000E-01   1.00800           0
     17459 MEMB     140      PMPG     H13B     HAL2     0.900000E-01   1.00800           0
     17460 MEMB     140      PMPG     OC3      OHL     -0.660000       15.9994           0
     17461 MEMB     140      PMPG     HO3      HOL      0.430000       1.00800           0
     17462 MEMB     140      PMPG     C12      CTL1     0.140000       12.0110           0
     17463 MEMB     140      PMPG     H12A     HAL1     0.900000E-01   1.00800           0
     17464 MEMB     140      PMPG     OC2      OHL     -0.660000       15.9994           0
     17465 MEMB     140      PMPG     HO2      HOL      0.430000       1.00800           0
     17466 MEMB     140      PMPG     C11      CTL2    -0.800000E-01   12.0110           0
     17467 MEMB     140      PMPG     H11A     HAL2     0.900000E-01   1.00800           0
     17468 MEMB     140      PMPG     H11B     HAL2     0.900000E-01   1.00800           0
     17469 MEMB     140      PMPG     P        PL        1.50000       30.9740           0
     17470 MEMB     140      PMPG     O13      O2L     -0.780000       15.9994           0
     17471 MEMB     140      PMPG     O14      O2L     -0.780000       15.9994           0
     17472 MEMB     140      PMPG     O11      OSLP    -0.570000       15.9994           0
     17473 MEMB     140      PMPG     O12      OSLP    -0.570000       15.9994           0
     17474 MEMB     140      PMPG     C1       CTL2    -0.800000E-01   12.0110           0
     17475 MEMB     140      PMPG     HA       HAL2     0.900000E-01   1.00800           0
     17476 MEMB     140      PMPG     HB       HAL2     0.900000E-01   1.00800           0
     17477 MEMB     140      PMPG     C2       CTL1     0.170000       12.0110           0
     17478 MEMB     140      PMPG     HS       HAL1     0.900000E-01   1.00800           0
     17479 MEMB     140      PMPG     O21      OSL     -0.490000       15.9994           0
     17480 MEMB     140      PMPG     C21      CL       0.900000       12.0110           0
     17481 MEMB     140      PMPG     O22      OBL     -0.630000       15.9994           0
     17482 MEMB     140      PMPG     C22      CTL2    -0.220000       12.0110           0
     17483 MEMB     140      PMPG     H2R      HAL2     0.900000E-01   1.00800           0
     17484 MEMB     140      PMPG     H2S      HAL2     0.900000E-01   1.00800           0
     17485 MEMB     140      PMPG     C3       CTL2     0.800000E-01   12.0110           0
     17486 MEMB     140      PMPG     HX       HAL2     0.900000E-01   1.00800           0
     17487 MEMB     140      PMPG     HY       HAL2     0.900000E-01   1.00800           0
     17488 MEMB     140      PMPG     O31      OSL     -0.490000       15.9994           0
     17489 MEMB     140      PMPG     C31      CL       0.900000       12.0110           0
     17490 MEMB     140      PMPG     O32      OBL     -0.630000       15.9994           0
     17491 MEMB     140      PMPG     C32      CTL2    -0.220000       12.0110           0
     17492 MEMB     140      PMPG     H2X      HAL2     0.900000E-01   1.00800           0
     17493 MEMB     140      PMPG     H2Y      HAL2     0.900000E-01   1.00800           0
     17494 MEMB     140      PMPG     C23      CTL2    -0.180000       12.0110           0
     17495 MEMB     140      PMPG     H3R      HAL2     0.900000E-01   1.00800           0
     17496 MEMB     140      PMPG     H3S      HAL2     0.900000E-01   1.00800           0
     17497 MEMB     140      PMPG     C24      CTL2    -0.180000       12.0110           0
     17498 MEMB     140      PMPG     H4R      HAL2     0.900000E-01   1.00800           0
     17499 MEMB     140      PMPG     H4S      HAL2     0.900000E-01   1.00800           0
     17500 MEMB     140      PMPG     C25      CTL2    -0.180000       12.0110           0
     17501 MEMB     140      PMPG     H5R      HAL2     0.900000E-01   1.00800           0
     17502 MEMB     140      PMPG     H5S      HAL2     0.900000E-01   1.00800           0
     17503 MEMB     140      PMPG     C26      CTL2    -0.180000       12.0110           0
     17504 MEMB     140      PMPG     H6R      HAL2     0.900000E-01   1.00800           0
     17505 MEMB     140      PMPG     H6S      HAL2     0.900000E-01   1.00800           0
     17506 MEMB     140      PMPG     C27      CTL2    -0.180000       12.0110           0
     17507 MEMB     140      PMPG     H7R      HAL2     0.900000E-01   1.00800           0
     17508 MEMB     140      PMPG     H7S      HAL2     0.900000E-01   1.00800           0
     17509 MEMB     140      PMPG     C28      CTL2    -0.180000       12.0110           0
     17510 MEMB     140      PMPG     H8R      HAL2     0.900000E-01   1.00800           0
     17511 MEMB     140      PMPG     H8S      HAL2     0.900000E-01   1.00800           0
     17512 MEMB     140      PMPG     C29      CG3RC1  -0.900000E-01   12.0110           0
     17513 MEMB     140      PMPG     H9R      HGA1     0.900000E-01   1.00800           0
     17514 MEMB     140      PMPG     C217     CG3C31  -0.180000       12.0110           0
     17515 MEMB     140      PMPG     H17R     HGA2     0.900000E-01   1.00800           0
     17516 MEMB     140      PMPG     H17S     HGA2     0.900000E-01   1.00800           0
     17517 MEMB     140      PMPG     C210     CG3RC1  -0.900000E-01   12.0110           0
     17518 MEMB     140      PMPG     H10R     HGA1     0.900000E-01   1.00800           0
     17519 MEMB     140      PMPG     C211     CTL2    -0.180000       12.0110           0
     17520 MEMB     140      PMPG     H11R     HAL2     0.900000E-01   1.00800           0
     17521 MEMB     140      PMPG     H11S     HAL2     0.900000E-01   1.00800           0
     17522 MEMB     140      PMPG     C212     CTL2    -0.180000       12.0110           0
     17523 MEMB     140      PMPG     H12R     HAL2     0.900000E-01   1.00800           0
     17524 MEMB     140      PMPG     H12S     HAL2     0.900000E-01   1.00800           0
     17525 MEMB     140      PMPG     C213     CTL2    -0.180000       12.0110           0
     17526 MEMB     140      PMPG     H13R     HAL2     0.900000E-01   1.00800           0
     17527 MEMB     140      PMPG     H13S     HAL2     0.900000E-01   1.00800           0
     17528 MEMB     140      PMPG     C214     CTL2    -0.180000       12.0110           0
     17529 MEMB     140      PMPG     H14R     HAL2     0.900000E-01   1.00800           0
     17530 MEMB     140      PMPG     H14S     HAL2     0.900000E-01   1.00800           0
     17531 MEMB     140      PMPG     C215     CTL2    -0.180000       12.0110           0
     17532 MEMB     140      PMPG     H15R     HAL2     0.900000E-01   1.00800           0
     17533 MEMB     140      PMPG     H15S     HAL2     0.900000E-01   1.00800           0
     17534 MEMB     140      PMPG     C216     CTL3    -0.270000       12.0110           0
     17535 MEMB     140      PMPG     H16R     HAL3     0.900000E-01   1.00800           0
     17536 MEMB     140      PMPG     H16S     HAL3     0.900000E-01   1.00800           0
     17537 MEMB     140      PMPG     H16T     HAL3     0.900000E-01   1.00800           0
     17538 MEMB     140      PMPG     C33      CTL2    -0.180000       12.0110           0
     17539 MEMB     140      PMPG     H3X      HAL2     0.900000E-01   1.00800           0
     17540 MEMB     140      PMPG     H3Y      HAL2     0.900000E-01   1.00800           0
     17541 MEMB     140      PMPG     C34      CTL2    -0.180000       12.0110           0
     17542 MEMB     140      PMPG     H4X      HAL2     0.900000E-01   1.00800           0
     17543 MEMB     140      PMPG     H4Y      HAL2     0.900000E-01   1.00800           0
     17544 MEMB     140      PMPG     C35      CTL2    -0.180000       12.0110           0
     17545 MEMB     140      PMPG     H5X      HAL2     0.900000E-01   1.00800           0
     17546 MEMB     140      PMPG     H5Y      HAL2     0.900000E-01   1.00800           0
     17547 MEMB     140      PMPG     C36      CTL2    -0.180000       12.0110           0
     17548 MEMB     140      PMPG     H6X      HAL2     0.900000E-01   1.00800           0
     17549 MEMB     140      PMPG     H6Y      HAL2     0.900000E-01   1.00800           0
     17550 MEMB     140      PMPG     C37      CTL2    -0.180000       12.0110           0
     17551 MEMB     140      PMPG     H7X      HAL2     0.900000E-01   1.00800           0
     17552 MEMB     140      PMPG     H7Y      HAL2     0.900000E-01   1.00800           0
     17553 MEMB     140      PMPG     C38      CTL2    -0.180000       12.0110           0
     17554 MEMB     140      PMPG     H8X      HAL2     0.900000E-01   1.00800           0
     17555 MEMB     140      PMPG     H8Y      HAL2     0.900000E-01   1.00800           0
     17556 MEMB     140      PMPG     C39      CTL2    -0.180000       12.0110           0
     17557 MEMB     140      PMPG     H9X      HAL2     0.900000E-01   1.00800           0
     17558 MEMB     140      PMPG     H9Y      HAL2     0.900000E-01   1.00800           0
     17559 MEMB     140      PMPG     C310     CTL2    -0.180000       12.0110           0
     17560 MEMB     140      PMPG     H10X     HAL2     0.900000E-01   1.00800           0
     17561 MEMB     140      PMPG     H10Y     HAL2     0.900000E-01   1.00800           0
     17562 MEMB     140      PMPG     C311     CTL2    -0.180000       12.0110           0
     17563 MEMB     140      PMPG     H11X     HAL2     0.900000E-01   1.00800           0
     17564 MEMB     140      PMPG     H11Y     HAL2     0.900000E-01   1.00800           0
     17565 MEMB     140      PMPG     C312     CTL2    -0.180000       12.0110           0
     17566 MEMB     140      PMPG     H12X     HAL2     0.900000E-01   1.00800           0
     17567 MEMB     140      PMPG     H12Y     HAL2     0.900000E-01   1.00800           0
     17568 MEMB     140      PMPG     C313     CTL2    -0.180000       12.0110           0
     17569 MEMB     140      PMPG     H13X     HAL2     0.900000E-01   1.00800           0
     17570 MEMB     140      PMPG     H13Y     HAL2     0.900000E-01   1.00800           0
     17571 MEMB     140      PMPG     C314     CTL2    -0.180000       12.0110           0
     17572 MEMB     140      PMPG     H14X     HAL2     0.900000E-01   1.00800           0
     17573 MEMB     140      PMPG     H14Y     HAL2     0.900000E-01   1.00800           0
     17574 MEMB     140      PMPG     C315     CTL2    -0.180000       12.0110           0
     17575 MEMB     140      PMPG     H15X     HAL2     0.900000E-01   1.00800           0
     17576 MEMB     140      PMPG     H15Y     HAL2     0.900000E-01   1.00800           0
     17577 MEMB     140      PMPG     C316     CTL3    -0.270000       12.0110           0
     17578 MEMB     140      PMPG     H16X     HAL3     0.900000E-01   1.00800           0
     17579 MEMB     140      PMPG     H16Y     HAL3     0.900000E-01   1.00800           0
     17580 MEMB     140      PMPG     H16Z     HAL3     0.900000E-01   1.00800           0
     17581 MEMB     141      QMPE     N        NH3L    -0.300000       14.0070           0
     17582 MEMB     141      QMPE     HN1      HCL      0.330000       1.00800           0
     17583 MEMB     141      QMPE     HN2      HCL      0.330000       1.00800           0
     17584 MEMB     141      QMPE     HN3      HCL      0.330000       1.00800           0
     17585 MEMB     141      QMPE     C12      CTL2     0.130000       12.0110           0
     17586 MEMB     141      QMPE     H12A     HAL2     0.900000E-01   1.00800           0
     17587 MEMB     141      QMPE     H12B     HAL2     0.900000E-01   1.00800           0
     17588 MEMB     141      QMPE     C11      CTL2    -0.800000E-01   12.0110           0
     17589 MEMB     141      QMPE     H11A     HAL2     0.900000E-01   1.00800           0
     17590 MEMB     141      QMPE     H11B     HAL2     0.900000E-01   1.00800           0
     17591 MEMB     141      QMPE     P        PL        1.50000       30.9740           0
     17592 MEMB     141      QMPE     O13      O2L     -0.780000       15.9994           0
     17593 MEMB     141      QMPE     O14      O2L     -0.780000       15.9994           0
     17594 MEMB     141      QMPE     O11      OSLP    -0.570000       15.9994           0
     17595 MEMB     141      QMPE     O12      OSLP    -0.570000       15.9994           0
     17596 MEMB     141      QMPE     C1       CTL2    -0.800000E-01   12.0110           0
     17597 MEMB     141      QMPE     HA       HAL2     0.900000E-01   1.00800           0
     17598 MEMB     141      QMPE     HB       HAL2     0.900000E-01   1.00800           0
     17599 MEMB     141      QMPE     C2       CTL1     0.170000       12.0110           0
     17600 MEMB     141      QMPE     HS       HAL1     0.900000E-01   1.00800           0
     17601 MEMB     141      QMPE     O21      OSL     -0.490000       15.9994           0
     17602 MEMB     141      QMPE     C21      CL       0.900000       12.0110           0
     17603 MEMB     141      QMPE     O22      OBL     -0.630000       15.9994           0
     17604 MEMB     141      QMPE     C22      CTL2    -0.220000       12.0110           0
     17605 MEMB     141      QMPE     H2R      HAL2     0.900000E-01   1.00800           0
     17606 MEMB     141      QMPE     H2S      HAL2     0.900000E-01   1.00800           0
     17607 MEMB     141      QMPE     C3       CTL2     0.800000E-01   12.0110           0
     17608 MEMB     141      QMPE     HX       HAL2     0.900000E-01   1.00800           0
     17609 MEMB     141      QMPE     HY       HAL2     0.900000E-01   1.00800           0
     17610 MEMB     141      QMPE     O31      OSL     -0.490000       15.9994           0
     17611 MEMB     141      QMPE     C31      CL       0.900000       12.0110           0
     17612 MEMB     141      QMPE     O32      OBL     -0.630000       15.9994           0
     17613 MEMB     141      QMPE     C32      CTL2    -0.220000       12.0110           0
     17614 MEMB     141      QMPE     H2X      HAL2     0.900000E-01   1.00800           0
     17615 MEMB     141      QMPE     H2Y      HAL2     0.900000E-01   1.00800           0
     17616 MEMB     141      QMPE     C23      CTL2    -0.180000       12.0110           0
     17617 MEMB     141      QMPE     H3R      HAL2     0.900000E-01   1.00800           0
     17618 MEMB     141      QMPE     H3S      HAL2     0.900000E-01   1.00800           0
     17619 MEMB     141      QMPE     C24      CTL2    -0.180000       12.0110           0
     17620 MEMB     141      QMPE     H4R      HAL2     0.900000E-01   1.00800           0
     17621 MEMB     141      QMPE     H4S      HAL2     0.900000E-01   1.00800           0
     17622 MEMB     141      QMPE     C25      CTL2    -0.180000       12.0110           0
     17623 MEMB     141      QMPE     H5R      HAL2     0.900000E-01   1.00800           0
     17624 MEMB     141      QMPE     H5S      HAL2     0.900000E-01   1.00800           0
     17625 MEMB     141      QMPE     C26      CTL2    -0.180000       12.0110           0
     17626 MEMB     141      QMPE     H6R      HAL2     0.900000E-01   1.00800           0
     17627 MEMB     141      QMPE     H6S      HAL2     0.900000E-01   1.00800           0
     17628 MEMB     141      QMPE     C27      CTL2    -0.180000       12.0110           0
     17629 MEMB     141      QMPE     H7R      HAL2     0.900000E-01   1.00800           0
     17630 MEMB     141      QMPE     H7S      HAL2     0.900000E-01   1.00800           0
     17631 MEMB     141      QMPE     C28      CTL2    -0.180000       12.0110           0
     17632 MEMB     141      QMPE     H8R      HAL2     0.900000E-01   1.00800           0
     17633 MEMB     141      QMPE     H8S      HAL2     0.900000E-01   1.00800           0
     17634 MEMB     141      QMPE     C29      CG3RC1  -0.900000E-01   12.0110           0
     17635 MEMB     141      QMPE     H9R      HGA1     0.900000E-01   1.00800           0
     17636 MEMB     141      QMPE     C217     CG3C31  -0.180000       12.0110           0
     17637 MEMB     141      QMPE     H17R     HGA2     0.900000E-01   1.00800           0
     17638 MEMB     141      QMPE     H17S     HGA2     0.900000E-01   1.00800           0
     17639 MEMB     141      QMPE     C210     CG3RC1  -0.900000E-01   12.0110           0
     17640 MEMB     141      QMPE     H10R     HGA1     0.900000E-01   1.00800           0
     17641 MEMB     141      QMPE     C211     CTL2    -0.180000       12.0110           0
     17642 MEMB     141      QMPE     H11R     HAL2     0.900000E-01   1.00800           0
     17643 MEMB     141      QMPE     H11S     HAL2     0.900000E-01   1.00800           0
     17644 MEMB     141      QMPE     C212     CTL2    -0.180000       12.0110           0
     17645 MEMB     141      QMPE     H12R     HAL2     0.900000E-01   1.00800           0
     17646 MEMB     141      QMPE     H12S     HAL2     0.900000E-01   1.00800           0
     17647 MEMB     141      QMPE     C213     CTL2    -0.180000       12.0110           0
     17648 MEMB     141      QMPE     H13R     HAL2     0.900000E-01   1.00800           0
     17649 MEMB     141      QMPE     H13S     HAL2     0.900000E-01   1.00800           0
     17650 MEMB     141      QMPE     C214     CTL2    -0.180000       12.0110           0
     17651 MEMB     141      QMPE     H14R     HAL2     0.900000E-01   1.00800           0
     17652 MEMB     141      QMPE     H14S     HAL2     0.900000E-01   1.00800           0
     17653 MEMB     141      QMPE     C215     CTL2    -0.180000       12.0110           0
     17654 MEMB     141      QMPE     H15R     HAL2     0.900000E-01   1.00800           0
     17655 MEMB     141      QMPE     H15S     HAL2     0.900000E-01   1.00800           0
     17656 MEMB     141      QMPE     C216     CTL3    -0.270000       12.0110           0
     17657 MEMB     141      QMPE     H16R     HAL3     0.900000E-01   1.00800           0
     17658 MEMB     141      QMPE     H16S     HAL3     0.900000E-01   1.00800           0
     17659 MEMB     141      QMPE     H16T     HAL3     0.900000E-01   1.00800           0
     17660 MEMB     141      QMPE     C33      CTL2    -0.180000       12.0110           0
     17661 MEMB     141      QMPE     H3X      HAL2     0.900000E-01   1.00800           0
     17662 MEMB     141      QMPE     H3Y      HAL2     0.900000E-01   1.00800           0
     17663 MEMB     141      QMPE     C34      CTL2    -0.180000       12.0110           0
     17664 MEMB     141      QMPE     H4X      HAL2     0.900000E-01   1.00800           0
     17665 MEMB     141      QMPE     H4Y      HAL2     0.900000E-01   1.00800           0
     17666 MEMB     141      QMPE     C35      CTL2    -0.180000       12.0110           0
     17667 MEMB     141      QMPE     H5X      HAL2     0.900000E-01   1.00800           0
     17668 MEMB     141      QMPE     H5Y      HAL2     0.900000E-01   1.00800           0
     17669 MEMB     141      QMPE     C36      CTL2    -0.180000       12.0110           0
     17670 MEMB     141      QMPE     H6X      HAL2     0.900000E-01   1.00800           0
     17671 MEMB     141      QMPE     H6Y      HAL2     0.900000E-01   1.00800           0
     17672 MEMB     141      QMPE     C37      CTL2    -0.180000       12.0110           0
     17673 MEMB     141      QMPE     H7X      HAL2     0.900000E-01   1.00800           0
     17674 MEMB     141      QMPE     H7Y      HAL2     0.900000E-01   1.00800           0
     17675 MEMB     141      QMPE     C38      CTL2    -0.180000       12.0110           0
     17676 MEMB     141      QMPE     H8X      HAL2     0.900000E-01   1.00800           0
     17677 MEMB     141      QMPE     H8Y      HAL2     0.900000E-01   1.00800           0
     17678 MEMB     141      QMPE     C39      CTL2    -0.180000       12.0110           0
     17679 MEMB     141      QMPE     H9X      HAL2     0.900000E-01   1.00800           0
     17680 MEMB     141      QMPE     H9Y      HAL2     0.900000E-01   1.00800           0
     17681 MEMB     141      QMPE     C310     CTL2    -0.180000       12.0110           0
     17682 MEMB     141      QMPE     H10X     HAL2     0.900000E-01   1.00800           0
     17683 MEMB     141      QMPE     H10Y     HAL2     0.900000E-01   1.00800           0
     17684 MEMB     141      QMPE     C311     CTL2    -0.180000       12.0110           0
     17685 MEMB     141      QMPE     H11X     HAL2     0.900000E-01   1.00800           0
     17686 MEMB     141      QMPE     H11Y     HAL2     0.900000E-01   1.00800           0
     17687 MEMB     141      QMPE     C312     CTL2    -0.180000       12.0110           0
     17688 MEMB     141      QMPE     H12X     HAL2     0.900000E-01   1.00800           0
     17689 MEMB     141      QMPE     H12Y     HAL2     0.900000E-01   1.00800           0
     17690 MEMB     141      QMPE     C313     CTL2    -0.180000       12.0110           0
     17691 MEMB     141      QMPE     H13X     HAL2     0.900000E-01   1.00800           0
     17692 MEMB     141      QMPE     H13Y     HAL2     0.900000E-01   1.00800           0
     17693 MEMB     141      QMPE     C314     CTL2    -0.180000       12.0110           0
     17694 MEMB     141      QMPE     H14X     HAL2     0.900000E-01   1.00800           0
     17695 MEMB     141      QMPE     H14Y     HAL2     0.900000E-01   1.00800           0
     17696 MEMB     141      QMPE     C315     CTL3    -0.270000       12.0110           0
     17697 MEMB     141      QMPE     H15X     HAL3     0.900000E-01   1.00800           0
     17698 MEMB     141      QMPE     H15Y     HAL3     0.900000E-01   1.00800           0
     17699 MEMB     141      QMPE     H15Z     HAL3     0.900000E-01   1.00800           0
     17700 MEMB     142      OYPE     N        NH3L    -0.300000       14.0070           0
     17701 MEMB     142      OYPE     HN1      HCL      0.330000       1.00800           0
     17702 MEMB     142      OYPE     HN2      HCL      0.330000       1.00800           0
     17703 MEMB     142      OYPE     HN3      HCL      0.330000       1.00800           0
     17704 MEMB     142      OYPE     C12      CTL2     0.130000       12.0110           0
     17705 MEMB     142      OYPE     H12A     HAL2     0.900000E-01   1.00800           0
     17706 MEMB     142      OYPE     H12B     HAL2     0.900000E-01   1.00800           0
     17707 MEMB     142      OYPE     C11      CTL2    -0.800000E-01   12.0110           0
     17708 MEMB     142      OYPE     H11A     HAL2     0.900000E-01   1.00800           0
     17709 MEMB     142      OYPE     H11B     HAL2     0.900000E-01   1.00800           0
     17710 MEMB     142      OYPE     P        PL        1.50000       30.9740           0
     17711 MEMB     142      OYPE     O13      O2L     -0.780000       15.9994           0
     17712 MEMB     142      OYPE     O14      O2L     -0.780000       15.9994           0
     17713 MEMB     142      OYPE     O11      OSLP    -0.570000       15.9994           0
     17714 MEMB     142      OYPE     O12      OSLP    -0.570000       15.9994           0
     17715 MEMB     142      OYPE     C1       CTL2    -0.800000E-01   12.0110           0
     17716 MEMB     142      OYPE     HA       HAL2     0.900000E-01   1.00800           0
     17717 MEMB     142      OYPE     HB       HAL2     0.900000E-01   1.00800           0
     17718 MEMB     142      OYPE     C2       CTL1     0.170000       12.0110           0
     17719 MEMB     142      OYPE     HS       HAL1     0.900000E-01   1.00800           0
     17720 MEMB     142      OYPE     O21      OSL     -0.490000       15.9994           0
     17721 MEMB     142      OYPE     C21      CL       0.900000       12.0110           0
     17722 MEMB     142      OYPE     O22      OBL     -0.630000       15.9994           0
     17723 MEMB     142      OYPE     C22      CTL2    -0.220000       12.0110           0
     17724 MEMB     142      OYPE     H2R      HAL2     0.900000E-01   1.00800           0
     17725 MEMB     142      OYPE     H2S      HAL2     0.900000E-01   1.00800           0
     17726 MEMB     142      OYPE     C3       CTL2     0.800000E-01   12.0110           0
     17727 MEMB     142      OYPE     HX       HAL2     0.900000E-01   1.00800           0
     17728 MEMB     142      OYPE     HY       HAL2     0.900000E-01   1.00800           0
     17729 MEMB     142      OYPE     O31      OSL     -0.490000       15.9994           0
     17730 MEMB     142      OYPE     C31      CL       0.900000       12.0110           0
     17731 MEMB     142      OYPE     O32      OBL     -0.630000       15.9994           0
     17732 MEMB     142      OYPE     C32      CTL2    -0.220000       12.0110           0
     17733 MEMB     142      OYPE     H2X      HAL2     0.900000E-01   1.00800           0
     17734 MEMB     142      OYPE     H2Y      HAL2     0.900000E-01   1.00800           0
     17735 MEMB     142      OYPE     C23      CTL2    -0.180000       12.0110           0
     17736 MEMB     142      OYPE     H3R      HAL2     0.900000E-01   1.00800           0
     17737 MEMB     142      OYPE     H3S      HAL2     0.900000E-01   1.00800           0
     17738 MEMB     142      OYPE     C24      CTL2    -0.180000       12.0110           0
     17739 MEMB     142      OYPE     H4R      HAL2     0.900000E-01   1.00800           0
     17740 MEMB     142      OYPE     H4S      HAL2     0.900000E-01   1.00800           0
     17741 MEMB     142      OYPE     C25      CTL2    -0.180000       12.0110           0
     17742 MEMB     142      OYPE     H5R      HAL2     0.900000E-01   1.00800           0
     17743 MEMB     142      OYPE     H5S      HAL2     0.900000E-01   1.00800           0
     17744 MEMB     142      OYPE     C26      CTL2    -0.180000       12.0110           0
     17745 MEMB     142      OYPE     H6R      HAL2     0.900000E-01   1.00800           0
     17746 MEMB     142      OYPE     H6S      HAL2     0.900000E-01   1.00800           0
     17747 MEMB     142      OYPE     C27      CTL2    -0.180000       12.0110           0
     17748 MEMB     142      OYPE     H7R      HAL2     0.900000E-01   1.00800           0
     17749 MEMB     142      OYPE     H7S      HAL2     0.900000E-01   1.00800           0
     17750 MEMB     142      OYPE     C28      CTL2    -0.180000       12.0110           0
     17751 MEMB     142      OYPE     H8R      HAL2     0.900000E-01   1.00800           0
     17752 MEMB     142      OYPE     H8S      HAL2     0.900000E-01   1.00800           0
     17753 MEMB     142      OYPE     C29      CEL1    -0.150000       12.0110           0
     17754 MEMB     142      OYPE     H9R      HEL1     0.150000       1.00800           0
     17755 MEMB     142      OYPE     C210     CEL1    -0.150000       12.0110           0
     17756 MEMB     142      OYPE     H10R     HEL1     0.150000       1.00800           0
     17757 MEMB     142      OYPE     C211     CTL2    -0.180000       12.0110           0
     17758 MEMB     142      OYPE     H11R     HAL2     0.900000E-01   1.00800           0
     17759 MEMB     142      OYPE     H11S     HAL2     0.900000E-01   1.00800           0
     17760 MEMB     142      OYPE     C212     CTL2    -0.180000       12.0110           0
     17761 MEMB     142      OYPE     H12R     HAL2     0.900000E-01   1.00800           0
     17762 MEMB     142      OYPE     H12S     HAL2     0.900000E-01   1.00800           0
     17763 MEMB     142      OYPE     C213     CTL2    -0.180000       12.0110           0
     17764 MEMB     142      OYPE     H13R     HAL2     0.900000E-01   1.00800           0
     17765 MEMB     142      OYPE     H13S     HAL2     0.900000E-01   1.00800           0
     17766 MEMB     142      OYPE     C214     CTL2    -0.180000       12.0110           0
     17767 MEMB     142      OYPE     H14R     HAL2     0.900000E-01   1.00800           0
     17768 MEMB     142      OYPE     H14S     HAL2     0.900000E-01   1.00800           0
     17769 MEMB     142      OYPE     C215     CTL2    -0.180000       12.0110           0
     17770 MEMB     142      OYPE     H15R     HAL2     0.900000E-01   1.00800           0
     17771 MEMB     142      OYPE     H15S     HAL2     0.900000E-01   1.00800           0
     17772 MEMB     142      OYPE     C216     CTL3    -0.270000       12.0110           0
     17773 MEMB     142      OYPE     H16R     HAL3     0.900000E-01   1.00800           0
     17774 MEMB     142      OYPE     H16S     HAL3     0.900000E-01   1.00800           0
     17775 MEMB     142      OYPE     H16T     HAL3     0.900000E-01   1.00800           0
     17776 MEMB     142      OYPE     C33      CTL2    -0.180000       12.0110           0
     17777 MEMB     142      OYPE     H3X      HAL2     0.900000E-01   1.00800           0
     17778 MEMB     142      OYPE     H3Y      HAL2     0.900000E-01   1.00800           0
     17779 MEMB     142      OYPE     C34      CTL2    -0.180000       12.0110           0
     17780 MEMB     142      OYPE     H4X      HAL2     0.900000E-01   1.00800           0
     17781 MEMB     142      OYPE     H4Y      HAL2     0.900000E-01   1.00800           0
     17782 MEMB     142      OYPE     C35      CTL2    -0.180000       12.0110           0
     17783 MEMB     142      OYPE     H5X      HAL2     0.900000E-01   1.00800           0
     17784 MEMB     142      OYPE     H5Y      HAL2     0.900000E-01   1.00800           0
     17785 MEMB     142      OYPE     C36      CTL2    -0.180000       12.0110           0
     17786 MEMB     142      OYPE     H6X      HAL2     0.900000E-01   1.00800           0
     17787 MEMB     142      OYPE     H6Y      HAL2     0.900000E-01   1.00800           0
     17788 MEMB     142      OYPE     C37      CTL2    -0.180000       12.0110           0
     17789 MEMB     142      OYPE     H7X      HAL2     0.900000E-01   1.00800           0
     17790 MEMB     142      OYPE     H7Y      HAL2     0.900000E-01   1.00800           0
     17791 MEMB     142      OYPE     C38      CTL2    -0.180000       12.0110           0
     17792 MEMB     142      OYPE     H8X      HAL2     0.900000E-01   1.00800           0
     17793 MEMB     142      OYPE     H8Y      HAL2     0.900000E-01   1.00800           0
     17794 MEMB     142      OYPE     C39      CEL1    -0.150000       12.0110           0
     17795 MEMB     142      OYPE     H9X      HEL1     0.150000       1.00800           0
     17796 MEMB     142      OYPE     C310     CEL1    -0.150000       12.0110           0
     17797 MEMB     142      OYPE     H10X     HEL1     0.150000       1.00800           0
     17798 MEMB     142      OYPE     C311     CTL2    -0.180000       12.0110           0
     17799 MEMB     142      OYPE     H11X     HAL2     0.900000E-01   1.00800           0
     17800 MEMB     142      OYPE     H11Y     HAL2     0.900000E-01   1.00800           0
     17801 MEMB     142      OYPE     C312     CTL2    -0.180000       12.0110           0
     17802 MEMB     142      OYPE     H12X     HAL2     0.900000E-01   1.00800           0
     17803 MEMB     142      OYPE     H12Y     HAL2     0.900000E-01   1.00800           0
     17804 MEMB     142      OYPE     C313     CTL2    -0.180000       12.0110           0
     17805 MEMB     142      OYPE     H13X     HAL2     0.900000E-01   1.00800           0
     17806 MEMB     142      OYPE     H13Y     HAL2     0.900000E-01   1.00800           0
     17807 MEMB     142      OYPE     C314     CTL2    -0.180000       12.0110           0
     17808 MEMB     142      OYPE     H14X     HAL2     0.900000E-01   1.00800           0
     17809 MEMB     142      OYPE     H14Y     HAL2     0.900000E-01   1.00800           0
     17810 MEMB     142      OYPE     C315     CTL2    -0.180000       12.0110           0
     17811 MEMB     142      OYPE     H15X     HAL2     0.900000E-01   1.00800           0
     17812 MEMB     142      OYPE     H15Y     HAL2     0.900000E-01   1.00800           0
     17813 MEMB     142      OYPE     C316     CTL2    -0.180000       12.0110           0
     17814 MEMB     142      OYPE     H16X     HAL2     0.900000E-01   1.00800           0
     17815 MEMB     142      OYPE     H16Y     HAL2     0.900000E-01   1.00800           0
     17816 MEMB     142      OYPE     C317     CTL2    -0.180000       12.0110           0
     17817 MEMB     142      OYPE     H17X     HAL2     0.900000E-01   1.00800           0
     17818 MEMB     142      OYPE     H17Y     HAL2     0.900000E-01   1.00800           0
     17819 MEMB     142      OYPE     C318     CTL3    -0.270000       12.0110           0
     17820 MEMB     142      OYPE     H18X     HAL3     0.900000E-01   1.00800           0
     17821 MEMB     142      OYPE     H18Y     HAL3     0.900000E-01   1.00800           0
     17822 MEMB     142      OYPE     H18Z     HAL3     0.900000E-01   1.00800           0
     17823 MEMB     143      PMPE     N        NH3L    -0.300000       14.0070           0
     17824 MEMB     143      PMPE     HN1      HCL      0.330000       1.00800           0
     17825 MEMB     143      PMPE     HN2      HCL      0.330000       1.00800           0
     17826 MEMB     143      PMPE     HN3      HCL      0.330000       1.00800           0
     17827 MEMB     143      PMPE     C12      CTL2     0.130000       12.0110           0
     17828 MEMB     143      PMPE     H12A     HAL2     0.900000E-01   1.00800           0
     17829 MEMB     143      PMPE     H12B     HAL2     0.900000E-01   1.00800           0
     17830 MEMB     143      PMPE     C11      CTL2    -0.800000E-01   12.0110           0
     17831 MEMB     143      PMPE     H11A     HAL2     0.900000E-01   1.00800           0
     17832 MEMB     143      PMPE     H11B     HAL2     0.900000E-01   1.00800           0
     17833 MEMB     143      PMPE     P        PL        1.50000       30.9740           0
     17834 MEMB     143      PMPE     O13      O2L     -0.780000       15.9994           0
     17835 MEMB     143      PMPE     O14      O2L     -0.780000       15.9994           0
     17836 MEMB     143      PMPE     O11      OSLP    -0.570000       15.9994           0
     17837 MEMB     143      PMPE     O12      OSLP    -0.570000       15.9994           0
     17838 MEMB     143      PMPE     C1       CTL2    -0.800000E-01   12.0110           0
     17839 MEMB     143      PMPE     HA       HAL2     0.900000E-01   1.00800           0
     17840 MEMB     143      PMPE     HB       HAL2     0.900000E-01   1.00800           0
     17841 MEMB     143      PMPE     C2       CTL1     0.170000       12.0110           0
     17842 MEMB     143      PMPE     HS       HAL1     0.900000E-01   1.00800           0
     17843 MEMB     143      PMPE     O21      OSL     -0.490000       15.9994           0
     17844 MEMB     143      PMPE     C21      CL       0.900000       12.0110           0
     17845 MEMB     143      PMPE     O22      OBL     -0.630000       15.9994           0
     17846 MEMB     143      PMPE     C22      CTL2    -0.220000       12.0110           0
     17847 MEMB     143      PMPE     H2R      HAL2     0.900000E-01   1.00800           0
     17848 MEMB     143      PMPE     H2S      HAL2     0.900000E-01   1.00800           0
     17849 MEMB     143      PMPE     C3       CTL2     0.800000E-01   12.0110           0
     17850 MEMB     143      PMPE     HX       HAL2     0.900000E-01   1.00800           0
     17851 MEMB     143      PMPE     HY       HAL2     0.900000E-01   1.00800           0
     17852 MEMB     143      PMPE     O31      OSL     -0.490000       15.9994           0
     17853 MEMB     143      PMPE     C31      CL       0.900000       12.0110           0
     17854 MEMB     143      PMPE     O32      OBL     -0.630000       15.9994           0
     17855 MEMB     143      PMPE     C32      CTL2    -0.220000       12.0110           0
     17856 MEMB     143      PMPE     H2X      HAL2     0.900000E-01   1.00800           0
     17857 MEMB     143      PMPE     H2Y      HAL2     0.900000E-01   1.00800           0
     17858 MEMB     143      PMPE     C23      CTL2    -0.180000       12.0110           0
     17859 MEMB     143      PMPE     H3R      HAL2     0.900000E-01   1.00800           0
     17860 MEMB     143      PMPE     H3S      HAL2     0.900000E-01   1.00800           0
     17861 MEMB     143      PMPE     C24      CTL2    -0.180000       12.0110           0
     17862 MEMB     143      PMPE     H4R      HAL2     0.900000E-01   1.00800           0
     17863 MEMB     143      PMPE     H4S      HAL2     0.900000E-01   1.00800           0
     17864 MEMB     143      PMPE     C25      CTL2    -0.180000       12.0110           0
     17865 MEMB     143      PMPE     H5R      HAL2     0.900000E-01   1.00800           0
     17866 MEMB     143      PMPE     H5S      HAL2     0.900000E-01   1.00800           0
     17867 MEMB     143      PMPE     C26      CTL2    -0.180000       12.0110           0
     17868 MEMB     143      PMPE     H6R      HAL2     0.900000E-01   1.00800           0
     17869 MEMB     143      PMPE     H6S      HAL2     0.900000E-01   1.00800           0
     17870 MEMB     143      PMPE     C27      CTL2    -0.180000       12.0110           0
     17871 MEMB     143      PMPE     H7R      HAL2     0.900000E-01   1.00800           0
     17872 MEMB     143      PMPE     H7S      HAL2     0.900000E-01   1.00800           0
     17873 MEMB     143      PMPE     C28      CTL2    -0.180000       12.0110           0
     17874 MEMB     143      PMPE     H8R      HAL2     0.900000E-01   1.00800           0
     17875 MEMB     143      PMPE     H8S      HAL2     0.900000E-01   1.00800           0
     17876 MEMB     143      PMPE     C29      CG3RC1  -0.900000E-01   12.0110           0
     17877 MEMB     143      PMPE     H9R      HGA1     0.900000E-01   1.00800           0
     17878 MEMB     143      PMPE     C217     CG3C31  -0.180000       12.0110           0
     17879 MEMB     143      PMPE     H17R     HGA2     0.900000E-01   1.00800           0
     17880 MEMB     143      PMPE     H17S     HGA2     0.900000E-01   1.00800           0
     17881 MEMB     143      PMPE     C210     CG3RC1  -0.900000E-01   12.0110           0
     17882 MEMB     143      PMPE     H10R     HGA1     0.900000E-01   1.00800           0
     17883 MEMB     143      PMPE     C211     CTL2    -0.180000       12.0110           0
     17884 MEMB     143      PMPE     H11R     HAL2     0.900000E-01   1.00800           0
     17885 MEMB     143      PMPE     H11S     HAL2     0.900000E-01   1.00800           0
     17886 MEMB     143      PMPE     C212     CTL2    -0.180000       12.0110           0
     17887 MEMB     143      PMPE     H12R     HAL2     0.900000E-01   1.00800           0
     17888 MEMB     143      PMPE     H12S     HAL2     0.900000E-01   1.00800           0
     17889 MEMB     143      PMPE     C213     CTL2    -0.180000       12.0110           0
     17890 MEMB     143      PMPE     H13R     HAL2     0.900000E-01   1.00800           0
     17891 MEMB     143      PMPE     H13S     HAL2     0.900000E-01   1.00800           0
     17892 MEMB     143      PMPE     C214     CTL2    -0.180000       12.0110           0
     17893 MEMB     143      PMPE     H14R     HAL2     0.900000E-01   1.00800           0
     17894 MEMB     143      PMPE     H14S     HAL2     0.900000E-01   1.00800           0
     17895 MEMB     143      PMPE     C215     CTL2    -0.180000       12.0110           0
     17896 MEMB     143      PMPE     H15R     HAL2     0.900000E-01   1.00800           0
     17897 MEMB     143      PMPE     H15S     HAL2     0.900000E-01   1.00800           0
     17898 MEMB     143      PMPE     C216     CTL3    -0.270000       12.0110           0
     17899 MEMB     143      PMPE     H16R     HAL3     0.900000E-01   1.00800           0
     17900 MEMB     143      PMPE     H16S     HAL3     0.900000E-01   1.00800           0
     17901 MEMB     143      PMPE     H16T     HAL3     0.900000E-01   1.00800           0
     17902 MEMB     143      PMPE     C33      CTL2    -0.180000       12.0110           0
     17903 MEMB     143      PMPE     H3X      HAL2     0.900000E-01   1.00800           0
     17904 MEMB     143      PMPE     H3Y      HAL2     0.900000E-01   1.00800           0
     17905 MEMB     143      PMPE     C34      CTL2    -0.180000       12.0110           0
     17906 MEMB     143      PMPE     H4X      HAL2     0.900000E-01   1.00800           0
     17907 MEMB     143      PMPE     H4Y      HAL2     0.900000E-01   1.00800           0
     17908 MEMB     143      PMPE     C35      CTL2    -0.180000       12.0110           0
     17909 MEMB     143      PMPE     H5X      HAL2     0.900000E-01   1.00800           0
     17910 MEMB     143      PMPE     H5Y      HAL2     0.900000E-01   1.00800           0
     17911 MEMB     143      PMPE     C36      CTL2    -0.180000       12.0110           0
     17912 MEMB     143      PMPE     H6X      HAL2     0.900000E-01   1.00800           0
     17913 MEMB     143      PMPE     H6Y      HAL2     0.900000E-01   1.00800           0
     17914 MEMB     143      PMPE     C37      CTL2    -0.180000       12.0110           0
     17915 MEMB     143      PMPE     H7X      HAL2     0.900000E-01   1.00800           0
     17916 MEMB     143      PMPE     H7Y      HAL2     0.900000E-01   1.00800           0
     17917 MEMB     143      PMPE     C38      CTL2    -0.180000       12.0110           0
     17918 MEMB     143      PMPE     H8X      HAL2     0.900000E-01   1.00800           0
     17919 MEMB     143      PMPE     H8Y      HAL2     0.900000E-01   1.00800           0
     17920 MEMB     143      PMPE     C39      CTL2    -0.180000       12.0110           0
     17921 MEMB     143      PMPE     H9X      HAL2     0.900000E-01   1.00800           0
     17922 MEMB     143      PMPE     H9Y      HAL2     0.900000E-01   1.00800           0
     17923 MEMB     143      PMPE     C310     CTL2    -0.180000       12.0110           0
     17924 MEMB     143      PMPE     H10X     HAL2     0.900000E-01   1.00800           0
     17925 MEMB     143      PMPE     H10Y     HAL2     0.900000E-01   1.00800           0
     17926 MEMB     143      PMPE     C311     CTL2    -0.180000       12.0110           0
     17927 MEMB     143      PMPE     H11X     HAL2     0.900000E-01   1.00800           0
     17928 MEMB     143      PMPE     H11Y     HAL2     0.900000E-01   1.00800           0
     17929 MEMB     143      PMPE     C312     CTL2    -0.180000       12.0110           0
     17930 MEMB     143      PMPE     H12X     HAL2     0.900000E-01   1.00800           0
     17931 MEMB     143      PMPE     H12Y     HAL2     0.900000E-01   1.00800           0
     17932 MEMB     143      PMPE     C313     CTL2    -0.180000       12.0110           0
     17933 MEMB     143      PMPE     H13X     HAL2     0.900000E-01   1.00800           0
     17934 MEMB     143      PMPE     H13Y     HAL2     0.900000E-01   1.00800           0
     17935 MEMB     143      PMPE     C314     CTL2    -0.180000       12.0110           0
     17936 MEMB     143      PMPE     H14X     HAL2     0.900000E-01   1.00800           0
     17937 MEMB     143      PMPE     H14Y     HAL2     0.900000E-01   1.00800           0
     17938 MEMB     143      PMPE     C315     CTL2    -0.180000       12.0110           0
     17939 MEMB     143      PMPE     H15X     HAL2     0.900000E-01   1.00800           0
     17940 MEMB     143      PMPE     H15Y     HAL2     0.900000E-01   1.00800           0
     17941 MEMB     143      PMPE     C316     CTL3    -0.270000       12.0110           0
     17942 MEMB     143      PMPE     H16X     HAL3     0.900000E-01   1.00800           0
     17943 MEMB     143      PMPE     H16Y     HAL3     0.900000E-01   1.00800           0
     17944 MEMB     143      PMPE     H16Z     HAL3     0.900000E-01   1.00800           0
     17945 MEMB     144      PMPE     N        NH3L    -0.300000       14.0070           0
     17946 MEMB     144      PMPE     HN1      HCL      0.330000       1.00800           0
     17947 MEMB     144      PMPE     HN2      HCL      0.330000       1.00800           0
     17948 MEMB     144      PMPE     HN3      HCL      0.330000       1.00800           0
     17949 MEMB     144      PMPE     C12      CTL2     0.130000       12.0110           0
     17950 MEMB     144      PMPE     H12A     HAL2     0.900000E-01   1.00800           0
     17951 MEMB     144      PMPE     H12B     HAL2     0.900000E-01   1.00800           0
     17952 MEMB     144      PMPE     C11      CTL2    -0.800000E-01   12.0110           0
     17953 MEMB     144      PMPE     H11A     HAL2     0.900000E-01   1.00800           0
     17954 MEMB     144      PMPE     H11B     HAL2     0.900000E-01   1.00800           0
     17955 MEMB     144      PMPE     P        PL        1.50000       30.9740           0
     17956 MEMB     144      PMPE     O13      O2L     -0.780000       15.9994           0
     17957 MEMB     144      PMPE     O14      O2L     -0.780000       15.9994           0
     17958 MEMB     144      PMPE     O11      OSLP    -0.570000       15.9994           0
     17959 MEMB     144      PMPE     O12      OSLP    -0.570000       15.9994           0
     17960 MEMB     144      PMPE     C1       CTL2    -0.800000E-01   12.0110           0
     17961 MEMB     144      PMPE     HA       HAL2     0.900000E-01   1.00800           0
     17962 MEMB     144      PMPE     HB       HAL2     0.900000E-01   1.00800           0
     17963 MEMB     144      PMPE     C2       CTL1     0.170000       12.0110           0
     17964 MEMB     144      PMPE     HS       HAL1     0.900000E-01   1.00800           0
     17965 MEMB     144      PMPE     O21      OSL     -0.490000       15.9994           0
     17966 MEMB     144      PMPE     C21      CL       0.900000       12.0110           0
     17967 MEMB     144      PMPE     O22      OBL     -0.630000       15.9994           0
     17968 MEMB     144      PMPE     C22      CTL2    -0.220000       12.0110           0
     17969 MEMB     144      PMPE     H2R      HAL2     0.900000E-01   1.00800           0
     17970 MEMB     144      PMPE     H2S      HAL2     0.900000E-01   1.00800           0
     17971 MEMB     144      PMPE     C3       CTL2     0.800000E-01   12.0110           0
     17972 MEMB     144      PMPE     HX       HAL2     0.900000E-01   1.00800           0
     17973 MEMB     144      PMPE     HY       HAL2     0.900000E-01   1.00800           0
     17974 MEMB     144      PMPE     O31      OSL     -0.490000       15.9994           0
     17975 MEMB     144      PMPE     C31      CL       0.900000       12.0110           0
     17976 MEMB     144      PMPE     O32      OBL     -0.630000       15.9994           0
     17977 MEMB     144      PMPE     C32      CTL2    -0.220000       12.0110           0
     17978 MEMB     144      PMPE     H2X      HAL2     0.900000E-01   1.00800           0
     17979 MEMB     144      PMPE     H2Y      HAL2     0.900000E-01   1.00800           0
     17980 MEMB     144      PMPE     C23      CTL2    -0.180000       12.0110           0
     17981 MEMB     144      PMPE     H3R      HAL2     0.900000E-01   1.00800           0
     17982 MEMB     144      PMPE     H3S      HAL2     0.900000E-01   1.00800           0
     17983 MEMB     144      PMPE     C24      CTL2    -0.180000       12.0110           0
     17984 MEMB     144      PMPE     H4R      HAL2     0.900000E-01   1.00800           0
     17985 MEMB     144      PMPE     H4S      HAL2     0.900000E-01   1.00800           0
     17986 MEMB     144      PMPE     C25      CTL2    -0.180000       12.0110           0
     17987 MEMB     144      PMPE     H5R      HAL2     0.900000E-01   1.00800           0
     17988 MEMB     144      PMPE     H5S      HAL2     0.900000E-01   1.00800           0
     17989 MEMB     144      PMPE     C26      CTL2    -0.180000       12.0110           0
     17990 MEMB     144      PMPE     H6R      HAL2     0.900000E-01   1.00800           0
     17991 MEMB     144      PMPE     H6S      HAL2     0.900000E-01   1.00800           0
     17992 MEMB     144      PMPE     C27      CTL2    -0.180000       12.0110           0
     17993 MEMB     144      PMPE     H7R      HAL2     0.900000E-01   1.00800           0
     17994 MEMB     144      PMPE     H7S      HAL2     0.900000E-01   1.00800           0
     17995 MEMB     144      PMPE     C28      CTL2    -0.180000       12.0110           0
     17996 MEMB     144      PMPE     H8R      HAL2     0.900000E-01   1.00800           0
     17997 MEMB     144      PMPE     H8S      HAL2     0.900000E-01   1.00800           0
     17998 MEMB     144      PMPE     C29      CG3RC1  -0.900000E-01   12.0110           0
     17999 MEMB     144      PMPE     H9R      HGA1     0.900000E-01   1.00800           0
     18000 MEMB     144      PMPE     C217     CG3C31  -0.180000       12.0110           0
     18001 MEMB     144      PMPE     H17R     HGA2     0.900000E-01   1.00800           0
     18002 MEMB     144      PMPE     H17S     HGA2     0.900000E-01   1.00800           0
     18003 MEMB     144      PMPE     C210     CG3RC1  -0.900000E-01   12.0110           0
     18004 MEMB     144      PMPE     H10R     HGA1     0.900000E-01   1.00800           0
     18005 MEMB     144      PMPE     C211     CTL2    -0.180000       12.0110           0
     18006 MEMB     144      PMPE     H11R     HAL2     0.900000E-01   1.00800           0
     18007 MEMB     144      PMPE     H11S     HAL2     0.900000E-01   1.00800           0
     18008 MEMB     144      PMPE     C212     CTL2    -0.180000       12.0110           0
     18009 MEMB     144      PMPE     H12R     HAL2     0.900000E-01   1.00800           0
     18010 MEMB     144      PMPE     H12S     HAL2     0.900000E-01   1.00800           0
     18011 MEMB     144      PMPE     C213     CTL2    -0.180000       12.0110           0
     18012 MEMB     144      PMPE     H13R     HAL2     0.900000E-01   1.00800           0
     18013 MEMB     144      PMPE     H13S     HAL2     0.900000E-01   1.00800           0
     18014 MEMB     144      PMPE     C214     CTL2    -0.180000       12.0110           0
     18015 MEMB     144      PMPE     H14R     HAL2     0.900000E-01   1.00800           0
     18016 MEMB     144      PMPE     H14S     HAL2     0.900000E-01   1.00800           0
     18017 MEMB     144      PMPE     C215     CTL2    -0.180000       12.0110           0
     18018 MEMB     144      PMPE     H15R     HAL2     0.900000E-01   1.00800           0
     18019 MEMB     144      PMPE     H15S     HAL2     0.900000E-01   1.00800           0
     18020 MEMB     144      PMPE     C216     CTL3    -0.270000       12.0110           0
     18021 MEMB     144      PMPE     H16R     HAL3     0.900000E-01   1.00800           0
     18022 MEMB     144      PMPE     H16S     HAL3     0.900000E-01   1.00800           0
     18023 MEMB     144      PMPE     H16T     HAL3     0.900000E-01   1.00800           0
     18024 MEMB     144      PMPE     C33      CTL2    -0.180000       12.0110           0
     18025 MEMB     144      PMPE     H3X      HAL2     0.900000E-01   1.00800           0
     18026 MEMB     144      PMPE     H3Y      HAL2     0.900000E-01   1.00800           0
     18027 MEMB     144      PMPE     C34      CTL2    -0.180000       12.0110           0
     18028 MEMB     144      PMPE     H4X      HAL2     0.900000E-01   1.00800           0
     18029 MEMB     144      PMPE     H4Y      HAL2     0.900000E-01   1.00800           0
     18030 MEMB     144      PMPE     C35      CTL2    -0.180000       12.0110           0
     18031 MEMB     144      PMPE     H5X      HAL2     0.900000E-01   1.00800           0
     18032 MEMB     144      PMPE     H5Y      HAL2     0.900000E-01   1.00800           0
     18033 MEMB     144      PMPE     C36      CTL2    -0.180000       12.0110           0
     18034 MEMB     144      PMPE     H6X      HAL2     0.900000E-01   1.00800           0
     18035 MEMB     144      PMPE     H6Y      HAL2     0.900000E-01   1.00800           0
     18036 MEMB     144      PMPE     C37      CTL2    -0.180000       12.0110           0
     18037 MEMB     144      PMPE     H7X      HAL2     0.900000E-01   1.00800           0
     18038 MEMB     144      PMPE     H7Y      HAL2     0.900000E-01   1.00800           0
     18039 MEMB     144      PMPE     C38      CTL2    -0.180000       12.0110           0
     18040 MEMB     144      PMPE     H8X      HAL2     0.900000E-01   1.00800           0
     18041 MEMB     144      PMPE     H8Y      HAL2     0.900000E-01   1.00800           0
     18042 MEMB     144      PMPE     C39      CTL2    -0.180000       12.0110           0
     18043 MEMB     144      PMPE     H9X      HAL2     0.900000E-01   1.00800           0
     18044 MEMB     144      PMPE     H9Y      HAL2     0.900000E-01   1.00800           0
     18045 MEMB     144      PMPE     C310     CTL2    -0.180000       12.0110           0
     18046 MEMB     144      PMPE     H10X     HAL2     0.900000E-01   1.00800           0
     18047 MEMB     144      PMPE     H10Y     HAL2     0.900000E-01   1.00800           0
     18048 MEMB     144      PMPE     C311     CTL2    -0.180000       12.0110           0
     18049 MEMB     144      PMPE     H11X     HAL2     0.900000E-01   1.00800           0
     18050 MEMB     144      PMPE     H11Y     HAL2     0.900000E-01   1.00800           0
     18051 MEMB     144      PMPE     C312     CTL2    -0.180000       12.0110           0
     18052 MEMB     144      PMPE     H12X     HAL2     0.900000E-01   1.00800           0
     18053 MEMB     144      PMPE     H12Y     HAL2     0.900000E-01   1.00800           0
     18054 MEMB     144      PMPE     C313     CTL2    -0.180000       12.0110           0
     18055 MEMB     144      PMPE     H13X     HAL2     0.900000E-01   1.00800           0
     18056 MEMB     144      PMPE     H13Y     HAL2     0.900000E-01   1.00800           0
     18057 MEMB     144      PMPE     C314     CTL2    -0.180000       12.0110           0
     18058 MEMB     144      PMPE     H14X     HAL2     0.900000E-01   1.00800           0
     18059 MEMB     144      PMPE     H14Y     HAL2     0.900000E-01   1.00800           0
     18060 MEMB     144      PMPE     C315     CTL2    -0.180000       12.0110           0
     18061 MEMB     144      PMPE     H15X     HAL2     0.900000E-01   1.00800           0
     18062 MEMB     144      PMPE     H15Y     HAL2     0.900000E-01   1.00800           0
     18063 MEMB     144      PMPE     C316     CTL3    -0.270000       12.0110           0
     18064 MEMB     144      PMPE     H16X     HAL3     0.900000E-01   1.00800           0
     18065 MEMB     144      PMPE     H16Y     HAL3     0.900000E-01   1.00800           0
     18066 MEMB     144      PMPE     H16Z     HAL3     0.900000E-01   1.00800           0
     18067 MEMB     145      QMPE     N        NH3L    -0.300000       14.0070           0
     18068 MEMB     145      QMPE     HN1      HCL      0.330000       1.00800           0
     18069 MEMB     145      QMPE     HN2      HCL      0.330000       1.00800           0
     18070 MEMB     145      QMPE     HN3      HCL      0.330000       1.00800           0
     18071 MEMB     145      QMPE     C12      CTL2     0.130000       12.0110           0
     18072 MEMB     145      QMPE     H12A     HAL2     0.900000E-01   1.00800           0
     18073 MEMB     145      QMPE     H12B     HAL2     0.900000E-01   1.00800           0
     18074 MEMB     145      QMPE     C11      CTL2    -0.800000E-01   12.0110           0
     18075 MEMB     145      QMPE     H11A     HAL2     0.900000E-01   1.00800           0
     18076 MEMB     145      QMPE     H11B     HAL2     0.900000E-01   1.00800           0
     18077 MEMB     145      QMPE     P        PL        1.50000       30.9740           0
     18078 MEMB     145      QMPE     O13      O2L     -0.780000       15.9994           0
     18079 MEMB     145      QMPE     O14      O2L     -0.780000       15.9994           0
     18080 MEMB     145      QMPE     O11      OSLP    -0.570000       15.9994           0
     18081 MEMB     145      QMPE     O12      OSLP    -0.570000       15.9994           0
     18082 MEMB     145      QMPE     C1       CTL2    -0.800000E-01   12.0110           0
     18083 MEMB     145      QMPE     HA       HAL2     0.900000E-01   1.00800           0
     18084 MEMB     145      QMPE     HB       HAL2     0.900000E-01   1.00800           0
     18085 MEMB     145      QMPE     C2       CTL1     0.170000       12.0110           0
     18086 MEMB     145      QMPE     HS       HAL1     0.900000E-01   1.00800           0
     18087 MEMB     145      QMPE     O21      OSL     -0.490000       15.9994           0
     18088 MEMB     145      QMPE     C21      CL       0.900000       12.0110           0
     18089 MEMB     145      QMPE     O22      OBL     -0.630000       15.9994           0
     18090 MEMB     145      QMPE     C22      CTL2    -0.220000       12.0110           0
     18091 MEMB     145      QMPE     H2R      HAL2     0.900000E-01   1.00800           0
     18092 MEMB     145      QMPE     H2S      HAL2     0.900000E-01   1.00800           0
     18093 MEMB     145      QMPE     C3       CTL2     0.800000E-01   12.0110           0
     18094 MEMB     145      QMPE     HX       HAL2     0.900000E-01   1.00800           0
     18095 MEMB     145      QMPE     HY       HAL2     0.900000E-01   1.00800           0
     18096 MEMB     145      QMPE     O31      OSL     -0.490000       15.9994           0
     18097 MEMB     145      QMPE     C31      CL       0.900000       12.0110           0
     18098 MEMB     145      QMPE     O32      OBL     -0.630000       15.9994           0
     18099 MEMB     145      QMPE     C32      CTL2    -0.220000       12.0110           0
     18100 MEMB     145      QMPE     H2X      HAL2     0.900000E-01   1.00800           0
     18101 MEMB     145      QMPE     H2Y      HAL2     0.900000E-01   1.00800           0
     18102 MEMB     145      QMPE     C23      CTL2    -0.180000       12.0110           0
     18103 MEMB     145      QMPE     H3R      HAL2     0.900000E-01   1.00800           0
     18104 MEMB     145      QMPE     H3S      HAL2     0.900000E-01   1.00800           0
     18105 MEMB     145      QMPE     C24      CTL2    -0.180000       12.0110           0
     18106 MEMB     145      QMPE     H4R      HAL2     0.900000E-01   1.00800           0
     18107 MEMB     145      QMPE     H4S      HAL2     0.900000E-01   1.00800           0
     18108 MEMB     145      QMPE     C25      CTL2    -0.180000       12.0110           0
     18109 MEMB     145      QMPE     H5R      HAL2     0.900000E-01   1.00800           0
     18110 MEMB     145      QMPE     H5S      HAL2     0.900000E-01   1.00800           0
     18111 MEMB     145      QMPE     C26      CTL2    -0.180000       12.0110           0
     18112 MEMB     145      QMPE     H6R      HAL2     0.900000E-01   1.00800           0
     18113 MEMB     145      QMPE     H6S      HAL2     0.900000E-01   1.00800           0
     18114 MEMB     145      QMPE     C27      CTL2    -0.180000       12.0110           0
     18115 MEMB     145      QMPE     H7R      HAL2     0.900000E-01   1.00800           0
     18116 MEMB     145      QMPE     H7S      HAL2     0.900000E-01   1.00800           0
     18117 MEMB     145      QMPE     C28      CTL2    -0.180000       12.0110           0
     18118 MEMB     145      QMPE     H8R      HAL2     0.900000E-01   1.00800           0
     18119 MEMB     145      QMPE     H8S      HAL2     0.900000E-01   1.00800           0
     18120 MEMB     145      QMPE     C29      CG3RC1  -0.900000E-01   12.0110           0
     18121 MEMB     145      QMPE     H9R      HGA1     0.900000E-01   1.00800           0
     18122 MEMB     145      QMPE     C217     CG3C31  -0.180000       12.0110           0
     18123 MEMB     145      QMPE     H17R     HGA2     0.900000E-01   1.00800           0
     18124 MEMB     145      QMPE     H17S     HGA2     0.900000E-01   1.00800           0
     18125 MEMB     145      QMPE     C210     CG3RC1  -0.900000E-01   12.0110           0
     18126 MEMB     145      QMPE     H10R     HGA1     0.900000E-01   1.00800           0
     18127 MEMB     145      QMPE     C211     CTL2    -0.180000       12.0110           0
     18128 MEMB     145      QMPE     H11R     HAL2     0.900000E-01   1.00800           0
     18129 MEMB     145      QMPE     H11S     HAL2     0.900000E-01   1.00800           0
     18130 MEMB     145      QMPE     C212     CTL2    -0.180000       12.0110           0
     18131 MEMB     145      QMPE     H12R     HAL2     0.900000E-01   1.00800           0
     18132 MEMB     145      QMPE     H12S     HAL2     0.900000E-01   1.00800           0
     18133 MEMB     145      QMPE     C213     CTL2    -0.180000       12.0110           0
     18134 MEMB     145      QMPE     H13R     HAL2     0.900000E-01   1.00800           0
     18135 MEMB     145      QMPE     H13S     HAL2     0.900000E-01   1.00800           0
     18136 MEMB     145      QMPE     C214     CTL2    -0.180000       12.0110           0
     18137 MEMB     145      QMPE     H14R     HAL2     0.900000E-01   1.00800           0
     18138 MEMB     145      QMPE     H14S     HAL2     0.900000E-01   1.00800           0
     18139 MEMB     145      QMPE     C215     CTL2    -0.180000       12.0110           0
     18140 MEMB     145      QMPE     H15R     HAL2     0.900000E-01   1.00800           0
     18141 MEMB     145      QMPE     H15S     HAL2     0.900000E-01   1.00800           0
     18142 MEMB     145      QMPE     C216     CTL3    -0.270000       12.0110           0
     18143 MEMB     145      QMPE     H16R     HAL3     0.900000E-01   1.00800           0
     18144 MEMB     145      QMPE     H16S     HAL3     0.900000E-01   1.00800           0
     18145 MEMB     145      QMPE     H16T     HAL3     0.900000E-01   1.00800           0
     18146 MEMB     145      QMPE     C33      CTL2    -0.180000       12.0110           0
     18147 MEMB     145      QMPE     H3X      HAL2     0.900000E-01   1.00800           0
     18148 MEMB     145      QMPE     H3Y      HAL2     0.900000E-01   1.00800           0
     18149 MEMB     145      QMPE     C34      CTL2    -0.180000       12.0110           0
     18150 MEMB     145      QMPE     H4X      HAL2     0.900000E-01   1.00800           0
     18151 MEMB     145      QMPE     H4Y      HAL2     0.900000E-01   1.00800           0
     18152 MEMB     145      QMPE     C35      CTL2    -0.180000       12.0110           0
     18153 MEMB     145      QMPE     H5X      HAL2     0.900000E-01   1.00800           0
     18154 MEMB     145      QMPE     H5Y      HAL2     0.900000E-01   1.00800           0
     18155 MEMB     145      QMPE     C36      CTL2    -0.180000       12.0110           0
     18156 MEMB     145      QMPE     H6X      HAL2     0.900000E-01   1.00800           0
     18157 MEMB     145      QMPE     H6Y      HAL2     0.900000E-01   1.00800           0
     18158 MEMB     145      QMPE     C37      CTL2    -0.180000       12.0110           0
     18159 MEMB     145      QMPE     H7X      HAL2     0.900000E-01   1.00800           0
     18160 MEMB     145      QMPE     H7Y      HAL2     0.900000E-01   1.00800           0
     18161 MEMB     145      QMPE     C38      CTL2    -0.180000       12.0110           0
     18162 MEMB     145      QMPE     H8X      HAL2     0.900000E-01   1.00800           0
     18163 MEMB     145      QMPE     H8Y      HAL2     0.900000E-01   1.00800           0
     18164 MEMB     145      QMPE     C39      CTL2    -0.180000       12.0110           0
     18165 MEMB     145      QMPE     H9X      HAL2     0.900000E-01   1.00800           0
     18166 MEMB     145      QMPE     H9Y      HAL2     0.900000E-01   1.00800           0
     18167 MEMB     145      QMPE     C310     CTL2    -0.180000       12.0110           0
     18168 MEMB     145      QMPE     H10X     HAL2     0.900000E-01   1.00800           0
     18169 MEMB     145      QMPE     H10Y     HAL2     0.900000E-01   1.00800           0
     18170 MEMB     145      QMPE     C311     CTL2    -0.180000       12.0110           0
     18171 MEMB     145      QMPE     H11X     HAL2     0.900000E-01   1.00800           0
     18172 MEMB     145      QMPE     H11Y     HAL2     0.900000E-01   1.00800           0
     18173 MEMB     145      QMPE     C312     CTL2    -0.180000       12.0110           0
     18174 MEMB     145      QMPE     H12X     HAL2     0.900000E-01   1.00800           0
     18175 MEMB     145      QMPE     H12Y     HAL2     0.900000E-01   1.00800           0
     18176 MEMB     145      QMPE     C313     CTL2    -0.180000       12.0110           0
     18177 MEMB     145      QMPE     H13X     HAL2     0.900000E-01   1.00800           0
     18178 MEMB     145      QMPE     H13Y     HAL2     0.900000E-01   1.00800           0
     18179 MEMB     145      QMPE     C314     CTL2    -0.180000       12.0110           0
     18180 MEMB     145      QMPE     H14X     HAL2     0.900000E-01   1.00800           0
     18181 MEMB     145      QMPE     H14Y     HAL2     0.900000E-01   1.00800           0
     18182 MEMB     145      QMPE     C315     CTL3    -0.270000       12.0110           0
     18183 MEMB     145      QMPE     H15X     HAL3     0.900000E-01   1.00800           0
     18184 MEMB     145      QMPE     H15Y     HAL3     0.900000E-01   1.00800           0
     18185 MEMB     145      QMPE     H15Z     HAL3     0.900000E-01   1.00800           0
     18186 MEMB     146      PMPE     N        NH3L    -0.300000       14.0070           0
     18187 MEMB     146      PMPE     HN1      HCL      0.330000       1.00800           0
     18188 MEMB     146      PMPE     HN2      HCL      0.330000       1.00800           0
     18189 MEMB     146      PMPE     HN3      HCL      0.330000       1.00800           0
     18190 MEMB     146      PMPE     C12      CTL2     0.130000       12.0110           0
     18191 MEMB     146      PMPE     H12A     HAL2     0.900000E-01   1.00800           0
     18192 MEMB     146      PMPE     H12B     HAL2     0.900000E-01   1.00800           0
     18193 MEMB     146      PMPE     C11      CTL2    -0.800000E-01   12.0110           0
     18194 MEMB     146      PMPE     H11A     HAL2     0.900000E-01   1.00800           0
     18195 MEMB     146      PMPE     H11B     HAL2     0.900000E-01   1.00800           0
     18196 MEMB     146      PMPE     P        PL        1.50000       30.9740           0
     18197 MEMB     146      PMPE     O13      O2L     -0.780000       15.9994           0
     18198 MEMB     146      PMPE     O14      O2L     -0.780000       15.9994           0
     18199 MEMB     146      PMPE     O11      OSLP    -0.570000       15.9994           0
     18200 MEMB     146      PMPE     O12      OSLP    -0.570000       15.9994           0
     18201 MEMB     146      PMPE     C1       CTL2    -0.800000E-01   12.0110           0
     18202 MEMB     146      PMPE     HA       HAL2     0.900000E-01   1.00800           0
     18203 MEMB     146      PMPE     HB       HAL2     0.900000E-01   1.00800           0
     18204 MEMB     146      PMPE     C2       CTL1     0.170000       12.0110           0
     18205 MEMB     146      PMPE     HS       HAL1     0.900000E-01   1.00800           0
     18206 MEMB     146      PMPE     O21      OSL     -0.490000       15.9994           0
     18207 MEMB     146      PMPE     C21      CL       0.900000       12.0110           0
     18208 MEMB     146      PMPE     O22      OBL     -0.630000       15.9994           0
     18209 MEMB     146      PMPE     C22      CTL2    -0.220000       12.0110           0
     18210 MEMB     146      PMPE     H2R      HAL2     0.900000E-01   1.00800           0
     18211 MEMB     146      PMPE     H2S      HAL2     0.900000E-01   1.00800           0
     18212 MEMB     146      PMPE     C3       CTL2     0.800000E-01   12.0110           0
     18213 MEMB     146      PMPE     HX       HAL2     0.900000E-01   1.00800           0
     18214 MEMB     146      PMPE     HY       HAL2     0.900000E-01   1.00800           0
     18215 MEMB     146      PMPE     O31      OSL     -0.490000       15.9994           0
     18216 MEMB     146      PMPE     C31      CL       0.900000       12.0110           0
     18217 MEMB     146      PMPE     O32      OBL     -0.630000       15.9994           0
     18218 MEMB     146      PMPE     C32      CTL2    -0.220000       12.0110           0
     18219 MEMB     146      PMPE     H2X      HAL2     0.900000E-01   1.00800           0
     18220 MEMB     146      PMPE     H2Y      HAL2     0.900000E-01   1.00800           0
     18221 MEMB     146      PMPE     C23      CTL2    -0.180000       12.0110           0
     18222 MEMB     146      PMPE     H3R      HAL2     0.900000E-01   1.00800           0
     18223 MEMB     146      PMPE     H3S      HAL2     0.900000E-01   1.00800           0
     18224 MEMB     146      PMPE     C24      CTL2    -0.180000       12.0110           0
     18225 MEMB     146      PMPE     H4R      HAL2     0.900000E-01   1.00800           0
     18226 MEMB     146      PMPE     H4S      HAL2     0.900000E-01   1.00800           0
     18227 MEMB     146      PMPE     C25      CTL2    -0.180000       12.0110           0
     18228 MEMB     146      PMPE     H5R      HAL2     0.900000E-01   1.00800           0
     18229 MEMB     146      PMPE     H5S      HAL2     0.900000E-01   1.00800           0
     18230 MEMB     146      PMPE     C26      CTL2    -0.180000       12.0110           0
     18231 MEMB     146      PMPE     H6R      HAL2     0.900000E-01   1.00800           0
     18232 MEMB     146      PMPE     H6S      HAL2     0.900000E-01   1.00800           0
     18233 MEMB     146      PMPE     C27      CTL2    -0.180000       12.0110           0
     18234 MEMB     146      PMPE     H7R      HAL2     0.900000E-01   1.00800           0
     18235 MEMB     146      PMPE     H7S      HAL2     0.900000E-01   1.00800           0
     18236 MEMB     146      PMPE     C28      CTL2    -0.180000       12.0110           0
     18237 MEMB     146      PMPE     H8R      HAL2     0.900000E-01   1.00800           0
     18238 MEMB     146      PMPE     H8S      HAL2     0.900000E-01   1.00800           0
     18239 MEMB     146      PMPE     C29      CG3RC1  -0.900000E-01   12.0110           0
     18240 MEMB     146      PMPE     H9R      HGA1     0.900000E-01   1.00800           0
     18241 MEMB     146      PMPE     C217     CG3C31  -0.180000       12.0110           0
     18242 MEMB     146      PMPE     H17R     HGA2     0.900000E-01   1.00800           0
     18243 MEMB     146      PMPE     H17S     HGA2     0.900000E-01   1.00800           0
     18244 MEMB     146      PMPE     C210     CG3RC1  -0.900000E-01   12.0110           0
     18245 MEMB     146      PMPE     H10R     HGA1     0.900000E-01   1.00800           0
     18246 MEMB     146      PMPE     C211     CTL2    -0.180000       12.0110           0
     18247 MEMB     146      PMPE     H11R     HAL2     0.900000E-01   1.00800           0
     18248 MEMB     146      PMPE     H11S     HAL2     0.900000E-01   1.00800           0
     18249 MEMB     146      PMPE     C212     CTL2    -0.180000       12.0110           0
     18250 MEMB     146      PMPE     H12R     HAL2     0.900000E-01   1.00800           0
     18251 MEMB     146      PMPE     H12S     HAL2     0.900000E-01   1.00800           0
     18252 MEMB     146      PMPE     C213     CTL2    -0.180000       12.0110           0
     18253 MEMB     146      PMPE     H13R     HAL2     0.900000E-01   1.00800           0
     18254 MEMB     146      PMPE     H13S     HAL2     0.900000E-01   1.00800           0
     18255 MEMB     146      PMPE     C214     CTL2    -0.180000       12.0110           0
     18256 MEMB     146      PMPE     H14R     HAL2     0.900000E-01   1.00800           0
     18257 MEMB     146      PMPE     H14S     HAL2     0.900000E-01   1.00800           0
     18258 MEMB     146      PMPE     C215     CTL2    -0.180000       12.0110           0
     18259 MEMB     146      PMPE     H15R     HAL2     0.900000E-01   1.00800           0
     18260 MEMB     146      PMPE     H15S     HAL2     0.900000E-01   1.00800           0
     18261 MEMB     146      PMPE     C216     CTL3    -0.270000       12.0110           0
     18262 MEMB     146      PMPE     H16R     HAL3     0.900000E-01   1.00800           0
     18263 MEMB     146      PMPE     H16S     HAL3     0.900000E-01   1.00800           0
     18264 MEMB     146      PMPE     H16T     HAL3     0.900000E-01   1.00800           0
     18265 MEMB     146      PMPE     C33      CTL2    -0.180000       12.0110           0
     18266 MEMB     146      PMPE     H3X      HAL2     0.900000E-01   1.00800           0
     18267 MEMB     146      PMPE     H3Y      HAL2     0.900000E-01   1.00800           0
     18268 MEMB     146      PMPE     C34      CTL2    -0.180000       12.0110           0
     18269 MEMB     146      PMPE     H4X      HAL2     0.900000E-01   1.00800           0
     18270 MEMB     146      PMPE     H4Y      HAL2     0.900000E-01   1.00800           0
     18271 MEMB     146      PMPE     C35      CTL2    -0.180000       12.0110           0
     18272 MEMB     146      PMPE     H5X      HAL2     0.900000E-01   1.00800           0
     18273 MEMB     146      PMPE     H5Y      HAL2     0.900000E-01   1.00800           0
     18274 MEMB     146      PMPE     C36      CTL2    -0.180000       12.0110           0
     18275 MEMB     146      PMPE     H6X      HAL2     0.900000E-01   1.00800           0
     18276 MEMB     146      PMPE     H6Y      HAL2     0.900000E-01   1.00800           0
     18277 MEMB     146      PMPE     C37      CTL2    -0.180000       12.0110           0
     18278 MEMB     146      PMPE     H7X      HAL2     0.900000E-01   1.00800           0
     18279 MEMB     146      PMPE     H7Y      HAL2     0.900000E-01   1.00800           0
     18280 MEMB     146      PMPE     C38      CTL2    -0.180000       12.0110           0
     18281 MEMB     146      PMPE     H8X      HAL2     0.900000E-01   1.00800           0
     18282 MEMB     146      PMPE     H8Y      HAL2     0.900000E-01   1.00800           0
     18283 MEMB     146      PMPE     C39      CTL2    -0.180000       12.0110           0
     18284 MEMB     146      PMPE     H9X      HAL2     0.900000E-01   1.00800           0
     18285 MEMB     146      PMPE     H9Y      HAL2     0.900000E-01   1.00800           0
     18286 MEMB     146      PMPE     C310     CTL2    -0.180000       12.0110           0
     18287 MEMB     146      PMPE     H10X     HAL2     0.900000E-01   1.00800           0
     18288 MEMB     146      PMPE     H10Y     HAL2     0.900000E-01   1.00800           0
     18289 MEMB     146      PMPE     C311     CTL2    -0.180000       12.0110           0
     18290 MEMB     146      PMPE     H11X     HAL2     0.900000E-01   1.00800           0
     18291 MEMB     146      PMPE     H11Y     HAL2     0.900000E-01   1.00800           0
     18292 MEMB     146      PMPE     C312     CTL2    -0.180000       12.0110           0
     18293 MEMB     146      PMPE     H12X     HAL2     0.900000E-01   1.00800           0
     18294 MEMB     146      PMPE     H12Y     HAL2     0.900000E-01   1.00800           0
     18295 MEMB     146      PMPE     C313     CTL2    -0.180000       12.0110           0
     18296 MEMB     146      PMPE     H13X     HAL2     0.900000E-01   1.00800           0
     18297 MEMB     146      PMPE     H13Y     HAL2     0.900000E-01   1.00800           0
     18298 MEMB     146      PMPE     C314     CTL2    -0.180000       12.0110           0
     18299 MEMB     146      PMPE     H14X     HAL2     0.900000E-01   1.00800           0
     18300 MEMB     146      PMPE     H14Y     HAL2     0.900000E-01   1.00800           0
     18301 MEMB     146      PMPE     C315     CTL2    -0.180000       12.0110           0
     18302 MEMB     146      PMPE     H15X     HAL2     0.900000E-01   1.00800           0
     18303 MEMB     146      PMPE     H15Y     HAL2     0.900000E-01   1.00800           0
     18304 MEMB     146      PMPE     C316     CTL3    -0.270000       12.0110           0
     18305 MEMB     146      PMPE     H16X     HAL3     0.900000E-01   1.00800           0
     18306 MEMB     146      PMPE     H16Y     HAL3     0.900000E-01   1.00800           0
     18307 MEMB     146      PMPE     H16Z     HAL3     0.900000E-01   1.00800           0
     18308 MEMB     147      POPE     N        NH3L    -0.300000       14.0070           0
     18309 MEMB     147      POPE     HN1      HCL      0.330000       1.00800           0
     18310 MEMB     147      POPE     HN2      HCL      0.330000       1.00800           0
     18311 MEMB     147      POPE     HN3      HCL      0.330000       1.00800           0
     18312 MEMB     147      POPE     C12      CTL2     0.130000       12.0110           0
     18313 MEMB     147      POPE     H12A     HAL2     0.900000E-01   1.00800           0
     18314 MEMB     147      POPE     H12B     HAL2     0.900000E-01   1.00800           0
     18315 MEMB     147      POPE     C11      CTL2    -0.800000E-01   12.0110           0
     18316 MEMB     147      POPE     H11A     HAL2     0.900000E-01   1.00800           0
     18317 MEMB     147      POPE     H11B     HAL2     0.900000E-01   1.00800           0
     18318 MEMB     147      POPE     P        PL        1.50000       30.9740           0
     18319 MEMB     147      POPE     O13      O2L     -0.780000       15.9994           0
     18320 MEMB     147      POPE     O14      O2L     -0.780000       15.9994           0
     18321 MEMB     147      POPE     O11      OSLP    -0.570000       15.9994           0
     18322 MEMB     147      POPE     O12      OSLP    -0.570000       15.9994           0
     18323 MEMB     147      POPE     C1       CTL2    -0.800000E-01   12.0110           0
     18324 MEMB     147      POPE     HA       HAL2     0.900000E-01   1.00800           0
     18325 MEMB     147      POPE     HB       HAL2     0.900000E-01   1.00800           0
     18326 MEMB     147      POPE     C2       CTL1     0.170000       12.0110           0
     18327 MEMB     147      POPE     HS       HAL1     0.900000E-01   1.00800           0
     18328 MEMB     147      POPE     O21      OSL     -0.490000       15.9994           0
     18329 MEMB     147      POPE     C21      CL       0.900000       12.0110           0
     18330 MEMB     147      POPE     O22      OBL     -0.630000       15.9994           0
     18331 MEMB     147      POPE     C22      CTL2    -0.220000       12.0110           0
     18332 MEMB     147      POPE     H2R      HAL2     0.900000E-01   1.00800           0
     18333 MEMB     147      POPE     H2S      HAL2     0.900000E-01   1.00800           0
     18334 MEMB     147      POPE     C3       CTL2     0.800000E-01   12.0110           0
     18335 MEMB     147      POPE     HX       HAL2     0.900000E-01   1.00800           0
     18336 MEMB     147      POPE     HY       HAL2     0.900000E-01   1.00800           0
     18337 MEMB     147      POPE     O31      OSL     -0.490000       15.9994           0
     18338 MEMB     147      POPE     C31      CL       0.900000       12.0110           0
     18339 MEMB     147      POPE     O32      OBL     -0.630000       15.9994           0
     18340 MEMB     147      POPE     C32      CTL2    -0.220000       12.0110           0
     18341 MEMB     147      POPE     H2X      HAL2     0.900000E-01   1.00800           0
     18342 MEMB     147      POPE     H2Y      HAL2     0.900000E-01   1.00800           0
     18343 MEMB     147      POPE     C23      CTL2    -0.180000       12.0110           0
     18344 MEMB     147      POPE     H3R      HAL2     0.900000E-01   1.00800           0
     18345 MEMB     147      POPE     H3S      HAL2     0.900000E-01   1.00800           0
     18346 MEMB     147      POPE     C24      CTL2    -0.180000       12.0110           0
     18347 MEMB     147      POPE     H4R      HAL2     0.900000E-01   1.00800           0
     18348 MEMB     147      POPE     H4S      HAL2     0.900000E-01   1.00800           0
     18349 MEMB     147      POPE     C25      CTL2    -0.180000       12.0110           0
     18350 MEMB     147      POPE     H5R      HAL2     0.900000E-01   1.00800           0
     18351 MEMB     147      POPE     H5S      HAL2     0.900000E-01   1.00800           0
     18352 MEMB     147      POPE     C26      CTL2    -0.180000       12.0110           0
     18353 MEMB     147      POPE     H6R      HAL2     0.900000E-01   1.00800           0
     18354 MEMB     147      POPE     H6S      HAL2     0.900000E-01   1.00800           0
     18355 MEMB     147      POPE     C27      CTL2    -0.180000       12.0110           0
     18356 MEMB     147      POPE     H7R      HAL2     0.900000E-01   1.00800           0
     18357 MEMB     147      POPE     H7S      HAL2     0.900000E-01   1.00800           0
     18358 MEMB     147      POPE     C28      CTL2    -0.180000       12.0110           0
     18359 MEMB     147      POPE     H8R      HAL2     0.900000E-01   1.00800           0
     18360 MEMB     147      POPE     H8S      HAL2     0.900000E-01   1.00800           0
     18361 MEMB     147      POPE     C29      CEL1    -0.150000       12.0110           0
     18362 MEMB     147      POPE     H91      HEL1     0.150000       1.00800           0
     18363 MEMB     147      POPE     C210     CEL1    -0.150000       12.0110           0
     18364 MEMB     147      POPE     H101     HEL1     0.150000       1.00800           0
     18365 MEMB     147      POPE     C211     CTL2    -0.180000       12.0110           0
     18366 MEMB     147      POPE     H11R     HAL2     0.900000E-01   1.00800           0
     18367 MEMB     147      POPE     H11S     HAL2     0.900000E-01   1.00800           0
     18368 MEMB     147      POPE     C212     CTL2    -0.180000       12.0110           0
     18369 MEMB     147      POPE     H12R     HAL2     0.900000E-01   1.00800           0
     18370 MEMB     147      POPE     H12S     HAL2     0.900000E-01   1.00800           0
     18371 MEMB     147      POPE     C213     CTL2    -0.180000       12.0110           0
     18372 MEMB     147      POPE     H13R     HAL2     0.900000E-01   1.00800           0
     18373 MEMB     147      POPE     H13S     HAL2     0.900000E-01   1.00800           0
     18374 MEMB     147      POPE     C214     CTL2    -0.180000       12.0110           0
     18375 MEMB     147      POPE     H14R     HAL2     0.900000E-01   1.00800           0
     18376 MEMB     147      POPE     H14S     HAL2     0.900000E-01   1.00800           0
     18377 MEMB     147      POPE     C215     CTL2    -0.180000       12.0110           0
     18378 MEMB     147      POPE     H15R     HAL2     0.900000E-01   1.00800           0
     18379 MEMB     147      POPE     H15S     HAL2     0.900000E-01   1.00800           0
     18380 MEMB     147      POPE     C216     CTL2    -0.180000       12.0110           0
     18381 MEMB     147      POPE     H16R     HAL2     0.900000E-01   1.00800           0
     18382 MEMB     147      POPE     H16S     HAL2     0.900000E-01   1.00800           0
     18383 MEMB     147      POPE     C217     CTL2    -0.180000       12.0110           0
     18384 MEMB     147      POPE     H17R     HAL2     0.900000E-01   1.00800           0
     18385 MEMB     147      POPE     H17S     HAL2     0.900000E-01   1.00800           0
     18386 MEMB     147      POPE     C218     CTL3    -0.270000       12.0110           0
     18387 MEMB     147      POPE     H18R     HAL3     0.900000E-01   1.00800           0
     18388 MEMB     147      POPE     H18S     HAL3     0.900000E-01   1.00800           0
     18389 MEMB     147      POPE     H18T     HAL3     0.900000E-01   1.00800           0
     18390 MEMB     147      POPE     C33      CTL2    -0.180000       12.0110           0
     18391 MEMB     147      POPE     H3X      HAL2     0.900000E-01   1.00800           0
     18392 MEMB     147      POPE     H3Y      HAL2     0.900000E-01   1.00800           0
     18393 MEMB     147      POPE     C34      CTL2    -0.180000       12.0110           0
     18394 MEMB     147      POPE     H4X      HAL2     0.900000E-01   1.00800           0
     18395 MEMB     147      POPE     H4Y      HAL2     0.900000E-01   1.00800           0
     18396 MEMB     147      POPE     C35      CTL2    -0.180000       12.0110           0
     18397 MEMB     147      POPE     H5X      HAL2     0.900000E-01   1.00800           0
     18398 MEMB     147      POPE     H5Y      HAL2     0.900000E-01   1.00800           0
     18399 MEMB     147      POPE     C36      CTL2    -0.180000       12.0110           0
     18400 MEMB     147      POPE     H6X      HAL2     0.900000E-01   1.00800           0
     18401 MEMB     147      POPE     H6Y      HAL2     0.900000E-01   1.00800           0
     18402 MEMB     147      POPE     C37      CTL2    -0.180000       12.0110           0
     18403 MEMB     147      POPE     H7X      HAL2     0.900000E-01   1.00800           0
     18404 MEMB     147      POPE     H7Y      HAL2     0.900000E-01   1.00800           0
     18405 MEMB     147      POPE     C38      CTL2    -0.180000       12.0110           0
     18406 MEMB     147      POPE     H8X      HAL2     0.900000E-01   1.00800           0
     18407 MEMB     147      POPE     H8Y      HAL2     0.900000E-01   1.00800           0
     18408 MEMB     147      POPE     C39      CTL2    -0.180000       12.0110           0
     18409 MEMB     147      POPE     H9X      HAL2     0.900000E-01   1.00800           0
     18410 MEMB     147      POPE     H9Y      HAL2     0.900000E-01   1.00800           0
     18411 MEMB     147      POPE     C310     CTL2    -0.180000       12.0110           0
     18412 MEMB     147      POPE     H10X     HAL2     0.900000E-01   1.00800           0
     18413 MEMB     147      POPE     H10Y     HAL2     0.900000E-01   1.00800           0
     18414 MEMB     147      POPE     C311     CTL2    -0.180000       12.0110           0
     18415 MEMB     147      POPE     H11X     HAL2     0.900000E-01   1.00800           0
     18416 MEMB     147      POPE     H11Y     HAL2     0.900000E-01   1.00800           0
     18417 MEMB     147      POPE     C312     CTL2    -0.180000       12.0110           0
     18418 MEMB     147      POPE     H12X     HAL2     0.900000E-01   1.00800           0
     18419 MEMB     147      POPE     H12Y     HAL2     0.900000E-01   1.00800           0
     18420 MEMB     147      POPE     C313     CTL2    -0.180000       12.0110           0
     18421 MEMB     147      POPE     H13X     HAL2     0.900000E-01   1.00800           0
     18422 MEMB     147      POPE     H13Y     HAL2     0.900000E-01   1.00800           0
     18423 MEMB     147      POPE     C314     CTL2    -0.180000       12.0110           0
     18424 MEMB     147      POPE     H14X     HAL2     0.900000E-01   1.00800           0
     18425 MEMB     147      POPE     H14Y     HAL2     0.900000E-01   1.00800           0
     18426 MEMB     147      POPE     C315     CTL2    -0.180000       12.0110           0
     18427 MEMB     147      POPE     H15X     HAL2     0.900000E-01   1.00800           0
     18428 MEMB     147      POPE     H15Y     HAL2     0.900000E-01   1.00800           0
     18429 MEMB     147      POPE     C316     CTL3    -0.270000       12.0110           0
     18430 MEMB     147      POPE     H16X     HAL3     0.900000E-01   1.00800           0
     18431 MEMB     147      POPE     H16Y     HAL3     0.900000E-01   1.00800           0
     18432 MEMB     147      POPE     H16Z     HAL3     0.900000E-01   1.00800           0
     18433 MEMB     148      PMPE     N        NH3L    -0.300000       14.0070           0
     18434 MEMB     148      PMPE     HN1      HCL      0.330000       1.00800           0
     18435 MEMB     148      PMPE     HN2      HCL      0.330000       1.00800           0
     18436 MEMB     148      PMPE     HN3      HCL      0.330000       1.00800           0
     18437 MEMB     148      PMPE     C12      CTL2     0.130000       12.0110           0
     18438 MEMB     148      PMPE     H12A     HAL2     0.900000E-01   1.00800           0
     18439 MEMB     148      PMPE     H12B     HAL2     0.900000E-01   1.00800           0
     18440 MEMB     148      PMPE     C11      CTL2    -0.800000E-01   12.0110           0
     18441 MEMB     148      PMPE     H11A     HAL2     0.900000E-01   1.00800           0
     18442 MEMB     148      PMPE     H11B     HAL2     0.900000E-01   1.00800           0
     18443 MEMB     148      PMPE     P        PL        1.50000       30.9740           0
     18444 MEMB     148      PMPE     O13      O2L     -0.780000       15.9994           0
     18445 MEMB     148      PMPE     O14      O2L     -0.780000       15.9994           0
     18446 MEMB     148      PMPE     O11      OSLP    -0.570000       15.9994           0
     18447 MEMB     148      PMPE     O12      OSLP    -0.570000       15.9994           0
     18448 MEMB     148      PMPE     C1       CTL2    -0.800000E-01   12.0110           0
     18449 MEMB     148      PMPE     HA       HAL2     0.900000E-01   1.00800           0
     18450 MEMB     148      PMPE     HB       HAL2     0.900000E-01   1.00800           0
     18451 MEMB     148      PMPE     C2       CTL1     0.170000       12.0110           0
     18452 MEMB     148      PMPE     HS       HAL1     0.900000E-01   1.00800           0
     18453 MEMB     148      PMPE     O21      OSL     -0.490000       15.9994           0
     18454 MEMB     148      PMPE     C21      CL       0.900000       12.0110           0
     18455 MEMB     148      PMPE     O22      OBL     -0.630000       15.9994           0
     18456 MEMB     148      PMPE     C22      CTL2    -0.220000       12.0110           0
     18457 MEMB     148      PMPE     H2R      HAL2     0.900000E-01   1.00800           0
     18458 MEMB     148      PMPE     H2S      HAL2     0.900000E-01   1.00800           0
     18459 MEMB     148      PMPE     C3       CTL2     0.800000E-01   12.0110           0
     18460 MEMB     148      PMPE     HX       HAL2     0.900000E-01   1.00800           0
     18461 MEMB     148      PMPE     HY       HAL2     0.900000E-01   1.00800           0
     18462 MEMB     148      PMPE     O31      OSL     -0.490000       15.9994           0
     18463 MEMB     148      PMPE     C31      CL       0.900000       12.0110           0
     18464 MEMB     148      PMPE     O32      OBL     -0.630000       15.9994           0
     18465 MEMB     148      PMPE     C32      CTL2    -0.220000       12.0110           0
     18466 MEMB     148      PMPE     H2X      HAL2     0.900000E-01   1.00800           0
     18467 MEMB     148      PMPE     H2Y      HAL2     0.900000E-01   1.00800           0
     18468 MEMB     148      PMPE     C23      CTL2    -0.180000       12.0110           0
     18469 MEMB     148      PMPE     H3R      HAL2     0.900000E-01   1.00800           0
     18470 MEMB     148      PMPE     H3S      HAL2     0.900000E-01   1.00800           0
     18471 MEMB     148      PMPE     C24      CTL2    -0.180000       12.0110           0
     18472 MEMB     148      PMPE     H4R      HAL2     0.900000E-01   1.00800           0
     18473 MEMB     148      PMPE     H4S      HAL2     0.900000E-01   1.00800           0
     18474 MEMB     148      PMPE     C25      CTL2    -0.180000       12.0110           0
     18475 MEMB     148      PMPE     H5R      HAL2     0.900000E-01   1.00800           0
     18476 MEMB     148      PMPE     H5S      HAL2     0.900000E-01   1.00800           0
     18477 MEMB     148      PMPE     C26      CTL2    -0.180000       12.0110           0
     18478 MEMB     148      PMPE     H6R      HAL2     0.900000E-01   1.00800           0
     18479 MEMB     148      PMPE     H6S      HAL2     0.900000E-01   1.00800           0
     18480 MEMB     148      PMPE     C27      CTL2    -0.180000       12.0110           0
     18481 MEMB     148      PMPE     H7R      HAL2     0.900000E-01   1.00800           0
     18482 MEMB     148      PMPE     H7S      HAL2     0.900000E-01   1.00800           0
     18483 MEMB     148      PMPE     C28      CTL2    -0.180000       12.0110           0
     18484 MEMB     148      PMPE     H8R      HAL2     0.900000E-01   1.00800           0
     18485 MEMB     148      PMPE     H8S      HAL2     0.900000E-01   1.00800           0
     18486 MEMB     148      PMPE     C29      CG3RC1  -0.900000E-01   12.0110           0
     18487 MEMB     148      PMPE     H9R      HGA1     0.900000E-01   1.00800           0
     18488 MEMB     148      PMPE     C217     CG3C31  -0.180000       12.0110           0
     18489 MEMB     148      PMPE     H17R     HGA2     0.900000E-01   1.00800           0
     18490 MEMB     148      PMPE     H17S     HGA2     0.900000E-01   1.00800           0
     18491 MEMB     148      PMPE     C210     CG3RC1  -0.900000E-01   12.0110           0
     18492 MEMB     148      PMPE     H10R     HGA1     0.900000E-01   1.00800           0
     18493 MEMB     148      PMPE     C211     CTL2    -0.180000       12.0110           0
     18494 MEMB     148      PMPE     H11R     HAL2     0.900000E-01   1.00800           0
     18495 MEMB     148      PMPE     H11S     HAL2     0.900000E-01   1.00800           0
     18496 MEMB     148      PMPE     C212     CTL2    -0.180000       12.0110           0
     18497 MEMB     148      PMPE     H12R     HAL2     0.900000E-01   1.00800           0
     18498 MEMB     148      PMPE     H12S     HAL2     0.900000E-01   1.00800           0
     18499 MEMB     148      PMPE     C213     CTL2    -0.180000       12.0110           0
     18500 MEMB     148      PMPE     H13R     HAL2     0.900000E-01   1.00800           0
     18501 MEMB     148      PMPE     H13S     HAL2     0.900000E-01   1.00800           0
     18502 MEMB     148      PMPE     C214     CTL2    -0.180000       12.0110           0
     18503 MEMB     148      PMPE     H14R     HAL2     0.900000E-01   1.00800           0
     18504 MEMB     148      PMPE     H14S     HAL2     0.900000E-01   1.00800           0
     18505 MEMB     148      PMPE     C215     CTL2    -0.180000       12.0110           0
     18506 MEMB     148      PMPE     H15R     HAL2     0.900000E-01   1.00800           0
     18507 MEMB     148      PMPE     H15S     HAL2     0.900000E-01   1.00800           0
     18508 MEMB     148      PMPE     C216     CTL3    -0.270000       12.0110           0
     18509 MEMB     148      PMPE     H16R     HAL3     0.900000E-01   1.00800           0
     18510 MEMB     148      PMPE     H16S     HAL3     0.900000E-01   1.00800           0
     18511 MEMB     148      PMPE     H16T     HAL3     0.900000E-01   1.00800           0
     18512 MEMB     148      PMPE     C33      CTL2    -0.180000       12.0110           0
     18513 MEMB     148      PMPE     H3X      HAL2     0.900000E-01   1.00800           0
     18514 MEMB     148      PMPE     H3Y      HAL2     0.900000E-01   1.00800           0
     18515 MEMB     148      PMPE     C34      CTL2    -0.180000       12.0110           0
     18516 MEMB     148      PMPE     H4X      HAL2     0.900000E-01   1.00800           0
     18517 MEMB     148      PMPE     H4Y      HAL2     0.900000E-01   1.00800           0
     18518 MEMB     148      PMPE     C35      CTL2    -0.180000       12.0110           0
     18519 MEMB     148      PMPE     H5X      HAL2     0.900000E-01   1.00800           0
     18520 MEMB     148      PMPE     H5Y      HAL2     0.900000E-01   1.00800           0
     18521 MEMB     148      PMPE     C36      CTL2    -0.180000       12.0110           0
     18522 MEMB     148      PMPE     H6X      HAL2     0.900000E-01   1.00800           0
     18523 MEMB     148      PMPE     H6Y      HAL2     0.900000E-01   1.00800           0
     18524 MEMB     148      PMPE     C37      CTL2    -0.180000       12.0110           0
     18525 MEMB     148      PMPE     H7X      HAL2     0.900000E-01   1.00800           0
     18526 MEMB     148      PMPE     H7Y      HAL2     0.900000E-01   1.00800           0
     18527 MEMB     148      PMPE     C38      CTL2    -0.180000       12.0110           0
     18528 MEMB     148      PMPE     H8X      HAL2     0.900000E-01   1.00800           0
     18529 MEMB     148      PMPE     H8Y      HAL2     0.900000E-01   1.00800           0
     18530 MEMB     148      PMPE     C39      CTL2    -0.180000       12.0110           0
     18531 MEMB     148      PMPE     H9X      HAL2     0.900000E-01   1.00800           0
     18532 MEMB     148      PMPE     H9Y      HAL2     0.900000E-01   1.00800           0
     18533 MEMB     148      PMPE     C310     CTL2    -0.180000       12.0110           0
     18534 MEMB     148      PMPE     H10X     HAL2     0.900000E-01   1.00800           0
     18535 MEMB     148      PMPE     H10Y     HAL2     0.900000E-01   1.00800           0
     18536 MEMB     148      PMPE     C311     CTL2    -0.180000       12.0110           0
     18537 MEMB     148      PMPE     H11X     HAL2     0.900000E-01   1.00800           0
     18538 MEMB     148      PMPE     H11Y     HAL2     0.900000E-01   1.00800           0
     18539 MEMB     148      PMPE     C312     CTL2    -0.180000       12.0110           0
     18540 MEMB     148      PMPE     H12X     HAL2     0.900000E-01   1.00800           0
     18541 MEMB     148      PMPE     H12Y     HAL2     0.900000E-01   1.00800           0
     18542 MEMB     148      PMPE     C313     CTL2    -0.180000       12.0110           0
     18543 MEMB     148      PMPE     H13X     HAL2     0.900000E-01   1.00800           0
     18544 MEMB     148      PMPE     H13Y     HAL2     0.900000E-01   1.00800           0
     18545 MEMB     148      PMPE     C314     CTL2    -0.180000       12.0110           0
     18546 MEMB     148      PMPE     H14X     HAL2     0.900000E-01   1.00800           0
     18547 MEMB     148      PMPE     H14Y     HAL2     0.900000E-01   1.00800           0
     18548 MEMB     148      PMPE     C315     CTL2    -0.180000       12.0110           0
     18549 MEMB     148      PMPE     H15X     HAL2     0.900000E-01   1.00800           0
     18550 MEMB     148      PMPE     H15Y     HAL2     0.900000E-01   1.00800           0
     18551 MEMB     148      PMPE     C316     CTL3    -0.270000       12.0110           0
     18552 MEMB     148      PMPE     H16X     HAL3     0.900000E-01   1.00800           0
     18553 MEMB     148      PMPE     H16Y     HAL3     0.900000E-01   1.00800           0
     18554 MEMB     148      PMPE     H16Z     HAL3     0.900000E-01   1.00800           0
     18555 MEMB     149      PMPE     N        NH3L    -0.300000       14.0070           0
     18556 MEMB     149      PMPE     HN1      HCL      0.330000       1.00800           0
     18557 MEMB     149      PMPE     HN2      HCL      0.330000       1.00800           0
     18558 MEMB     149      PMPE     HN3      HCL      0.330000       1.00800           0
     18559 MEMB     149      PMPE     C12      CTL2     0.130000       12.0110           0
     18560 MEMB     149      PMPE     H12A     HAL2     0.900000E-01   1.00800           0
     18561 MEMB     149      PMPE     H12B     HAL2     0.900000E-01   1.00800           0
     18562 MEMB     149      PMPE     C11      CTL2    -0.800000E-01   12.0110           0
     18563 MEMB     149      PMPE     H11A     HAL2     0.900000E-01   1.00800           0
     18564 MEMB     149      PMPE     H11B     HAL2     0.900000E-01   1.00800           0
     18565 MEMB     149      PMPE     P        PL        1.50000       30.9740           0
     18566 MEMB     149      PMPE     O13      O2L     -0.780000       15.9994           0
     18567 MEMB     149      PMPE     O14      O2L     -0.780000       15.9994           0
     18568 MEMB     149      PMPE     O11      OSLP    -0.570000       15.9994           0
     18569 MEMB     149      PMPE     O12      OSLP    -0.570000       15.9994           0
     18570 MEMB     149      PMPE     C1       CTL2    -0.800000E-01   12.0110           0
     18571 MEMB     149      PMPE     HA       HAL2     0.900000E-01   1.00800           0
     18572 MEMB     149      PMPE     HB       HAL2     0.900000E-01   1.00800           0
     18573 MEMB     149      PMPE     C2       CTL1     0.170000       12.0110           0
     18574 MEMB     149      PMPE     HS       HAL1     0.900000E-01   1.00800           0
     18575 MEMB     149      PMPE     O21      OSL     -0.490000       15.9994           0
     18576 MEMB     149      PMPE     C21      CL       0.900000       12.0110           0
     18577 MEMB     149      PMPE     O22      OBL     -0.630000       15.9994           0
     18578 MEMB     149      PMPE     C22      CTL2    -0.220000       12.0110           0
     18579 MEMB     149      PMPE     H2R      HAL2     0.900000E-01   1.00800           0
     18580 MEMB     149      PMPE     H2S      HAL2     0.900000E-01   1.00800           0
     18581 MEMB     149      PMPE     C3       CTL2     0.800000E-01   12.0110           0
     18582 MEMB     149      PMPE     HX       HAL2     0.900000E-01   1.00800           0
     18583 MEMB     149      PMPE     HY       HAL2     0.900000E-01   1.00800           0
     18584 MEMB     149      PMPE     O31      OSL     -0.490000       15.9994           0
     18585 MEMB     149      PMPE     C31      CL       0.900000       12.0110           0
     18586 MEMB     149      PMPE     O32      OBL     -0.630000       15.9994           0
     18587 MEMB     149      PMPE     C32      CTL2    -0.220000       12.0110           0
     18588 MEMB     149      PMPE     H2X      HAL2     0.900000E-01   1.00800           0
     18589 MEMB     149      PMPE     H2Y      HAL2     0.900000E-01   1.00800           0
     18590 MEMB     149      PMPE     C23      CTL2    -0.180000       12.0110           0
     18591 MEMB     149      PMPE     H3R      HAL2     0.900000E-01   1.00800           0
     18592 MEMB     149      PMPE     H3S      HAL2     0.900000E-01   1.00800           0
     18593 MEMB     149      PMPE     C24      CTL2    -0.180000       12.0110           0
     18594 MEMB     149      PMPE     H4R      HAL2     0.900000E-01   1.00800           0
     18595 MEMB     149      PMPE     H4S      HAL2     0.900000E-01   1.00800           0
     18596 MEMB     149      PMPE     C25      CTL2    -0.180000       12.0110           0
     18597 MEMB     149      PMPE     H5R      HAL2     0.900000E-01   1.00800           0
     18598 MEMB     149      PMPE     H5S      HAL2     0.900000E-01   1.00800           0
     18599 MEMB     149      PMPE     C26      CTL2    -0.180000       12.0110           0
     18600 MEMB     149      PMPE     H6R      HAL2     0.900000E-01   1.00800           0
     18601 MEMB     149      PMPE     H6S      HAL2     0.900000E-01   1.00800           0
     18602 MEMB     149      PMPE     C27      CTL2    -0.180000       12.0110           0
     18603 MEMB     149      PMPE     H7R      HAL2     0.900000E-01   1.00800           0
     18604 MEMB     149      PMPE     H7S      HAL2     0.900000E-01   1.00800           0
     18605 MEMB     149      PMPE     C28      CTL2    -0.180000       12.0110           0
     18606 MEMB     149      PMPE     H8R      HAL2     0.900000E-01   1.00800           0
     18607 MEMB     149      PMPE     H8S      HAL2     0.900000E-01   1.00800           0
     18608 MEMB     149      PMPE     C29      CG3RC1  -0.900000E-01   12.0110           0
     18609 MEMB     149      PMPE     H9R      HGA1     0.900000E-01   1.00800           0
     18610 MEMB     149      PMPE     C217     CG3C31  -0.180000       12.0110           0
     18611 MEMB     149      PMPE     H17R     HGA2     0.900000E-01   1.00800           0
     18612 MEMB     149      PMPE     H17S     HGA2     0.900000E-01   1.00800           0
     18613 MEMB     149      PMPE     C210     CG3RC1  -0.900000E-01   12.0110           0
     18614 MEMB     149      PMPE     H10R     HGA1     0.900000E-01   1.00800           0
     18615 MEMB     149      PMPE     C211     CTL2    -0.180000       12.0110           0
     18616 MEMB     149      PMPE     H11R     HAL2     0.900000E-01   1.00800           0
     18617 MEMB     149      PMPE     H11S     HAL2     0.900000E-01   1.00800           0
     18618 MEMB     149      PMPE     C212     CTL2    -0.180000       12.0110           0
     18619 MEMB     149      PMPE     H12R     HAL2     0.900000E-01   1.00800           0
     18620 MEMB     149      PMPE     H12S     HAL2     0.900000E-01   1.00800           0
     18621 MEMB     149      PMPE     C213     CTL2    -0.180000       12.0110           0
     18622 MEMB     149      PMPE     H13R     HAL2     0.900000E-01   1.00800           0
     18623 MEMB     149      PMPE     H13S     HAL2     0.900000E-01   1.00800           0
     18624 MEMB     149      PMPE     C214     CTL2    -0.180000       12.0110           0
     18625 MEMB     149      PMPE     H14R     HAL2     0.900000E-01   1.00800           0
     18626 MEMB     149      PMPE     H14S     HAL2     0.900000E-01   1.00800           0
     18627 MEMB     149      PMPE     C215     CTL2    -0.180000       12.0110           0
     18628 MEMB     149      PMPE     H15R     HAL2     0.900000E-01   1.00800           0
     18629 MEMB     149      PMPE     H15S     HAL2     0.900000E-01   1.00800           0
     18630 MEMB     149      PMPE     C216     CTL3    -0.270000       12.0110           0
     18631 MEMB     149      PMPE     H16R     HAL3     0.900000E-01   1.00800           0
     18632 MEMB     149      PMPE     H16S     HAL3     0.900000E-01   1.00800           0
     18633 MEMB     149      PMPE     H16T     HAL3     0.900000E-01   1.00800           0
     18634 MEMB     149      PMPE     C33      CTL2    -0.180000       12.0110           0
     18635 MEMB     149      PMPE     H3X      HAL2     0.900000E-01   1.00800           0
     18636 MEMB     149      PMPE     H3Y      HAL2     0.900000E-01   1.00800           0
     18637 MEMB     149      PMPE     C34      CTL2    -0.180000       12.0110           0
     18638 MEMB     149      PMPE     H4X      HAL2     0.900000E-01   1.00800           0
     18639 MEMB     149      PMPE     H4Y      HAL2     0.900000E-01   1.00800           0
     18640 MEMB     149      PMPE     C35      CTL2    -0.180000       12.0110           0
     18641 MEMB     149      PMPE     H5X      HAL2     0.900000E-01   1.00800           0
     18642 MEMB     149      PMPE     H5Y      HAL2     0.900000E-01   1.00800           0
     18643 MEMB     149      PMPE     C36      CTL2    -0.180000       12.0110           0
     18644 MEMB     149      PMPE     H6X      HAL2     0.900000E-01   1.00800           0
     18645 MEMB     149      PMPE     H6Y      HAL2     0.900000E-01   1.00800           0
     18646 MEMB     149      PMPE     C37      CTL2    -0.180000       12.0110           0
     18647 MEMB     149      PMPE     H7X      HAL2     0.900000E-01   1.00800           0
     18648 MEMB     149      PMPE     H7Y      HAL2     0.900000E-01   1.00800           0
     18649 MEMB     149      PMPE     C38      CTL2    -0.180000       12.0110           0
     18650 MEMB     149      PMPE     H8X      HAL2     0.900000E-01   1.00800           0
     18651 MEMB     149      PMPE     H8Y      HAL2     0.900000E-01   1.00800           0
     18652 MEMB     149      PMPE     C39      CTL2    -0.180000       12.0110           0
     18653 MEMB     149      PMPE     H9X      HAL2     0.900000E-01   1.00800           0
     18654 MEMB     149      PMPE     H9Y      HAL2     0.900000E-01   1.00800           0
     18655 MEMB     149      PMPE     C310     CTL2    -0.180000       12.0110           0
     18656 MEMB     149      PMPE     H10X     HAL2     0.900000E-01   1.00800           0
     18657 MEMB     149      PMPE     H10Y     HAL2     0.900000E-01   1.00800           0
     18658 MEMB     149      PMPE     C311     CTL2    -0.180000       12.0110           0
     18659 MEMB     149      PMPE     H11X     HAL2     0.900000E-01   1.00800           0
     18660 MEMB     149      PMPE     H11Y     HAL2     0.900000E-01   1.00800           0
     18661 MEMB     149      PMPE     C312     CTL2    -0.180000       12.0110           0
     18662 MEMB     149      PMPE     H12X     HAL2     0.900000E-01   1.00800           0
     18663 MEMB     149      PMPE     H12Y     HAL2     0.900000E-01   1.00800           0
     18664 MEMB     149      PMPE     C313     CTL2    -0.180000       12.0110           0
     18665 MEMB     149      PMPE     H13X     HAL2     0.900000E-01   1.00800           0
     18666 MEMB     149      PMPE     H13Y     HAL2     0.900000E-01   1.00800           0
     18667 MEMB     149      PMPE     C314     CTL2    -0.180000       12.0110           0
     18668 MEMB     149      PMPE     H14X     HAL2     0.900000E-01   1.00800           0
     18669 MEMB     149      PMPE     H14Y     HAL2     0.900000E-01   1.00800           0
     18670 MEMB     149      PMPE     C315     CTL2    -0.180000       12.0110           0
     18671 MEMB     149      PMPE     H15X     HAL2     0.900000E-01   1.00800           0
     18672 MEMB     149      PMPE     H15Y     HAL2     0.900000E-01   1.00800           0
     18673 MEMB     149      PMPE     C316     CTL3    -0.270000       12.0110           0
     18674 MEMB     149      PMPE     H16X     HAL3     0.900000E-01   1.00800           0
     18675 MEMB     149      PMPE     H16Y     HAL3     0.900000E-01   1.00800           0
     18676 MEMB     149      PMPE     H16Z     HAL3     0.900000E-01   1.00800           0
     18677 MEMB     150      PMPE     N        NH3L    -0.300000       14.0070           0
     18678 MEMB     150      PMPE     HN1      HCL      0.330000       1.00800           0
     18679 MEMB     150      PMPE     HN2      HCL      0.330000       1.00800           0
     18680 MEMB     150      PMPE     HN3      HCL      0.330000       1.00800           0
     18681 MEMB     150      PMPE     C12      CTL2     0.130000       12.0110           0
     18682 MEMB     150      PMPE     H12A     HAL2     0.900000E-01   1.00800           0
     18683 MEMB     150      PMPE     H12B     HAL2     0.900000E-01   1.00800           0
     18684 MEMB     150      PMPE     C11      CTL2    -0.800000E-01   12.0110           0
     18685 MEMB     150      PMPE     H11A     HAL2     0.900000E-01   1.00800           0
     18686 MEMB     150      PMPE     H11B     HAL2     0.900000E-01   1.00800           0
     18687 MEMB     150      PMPE     P        PL        1.50000       30.9740           0
     18688 MEMB     150      PMPE     O13      O2L     -0.780000       15.9994           0
     18689 MEMB     150      PMPE     O14      O2L     -0.780000       15.9994           0
     18690 MEMB     150      PMPE     O11      OSLP    -0.570000       15.9994           0
     18691 MEMB     150      PMPE     O12      OSLP    -0.570000       15.9994           0
     18692 MEMB     150      PMPE     C1       CTL2    -0.800000E-01   12.0110           0
     18693 MEMB     150      PMPE     HA       HAL2     0.900000E-01   1.00800           0
     18694 MEMB     150      PMPE     HB       HAL2     0.900000E-01   1.00800           0
     18695 MEMB     150      PMPE     C2       CTL1     0.170000       12.0110           0
     18696 MEMB     150      PMPE     HS       HAL1     0.900000E-01   1.00800           0
     18697 MEMB     150      PMPE     O21      OSL     -0.490000       15.9994           0
     18698 MEMB     150      PMPE     C21      CL       0.900000       12.0110           0
     18699 MEMB     150      PMPE     O22      OBL     -0.630000       15.9994           0
     18700 MEMB     150      PMPE     C22      CTL2    -0.220000       12.0110           0
     18701 MEMB     150      PMPE     H2R      HAL2     0.900000E-01   1.00800           0
     18702 MEMB     150      PMPE     H2S      HAL2     0.900000E-01   1.00800           0
     18703 MEMB     150      PMPE     C3       CTL2     0.800000E-01   12.0110           0
     18704 MEMB     150      PMPE     HX       HAL2     0.900000E-01   1.00800           0
     18705 MEMB     150      PMPE     HY       HAL2     0.900000E-01   1.00800           0
     18706 MEMB     150      PMPE     O31      OSL     -0.490000       15.9994           0
     18707 MEMB     150      PMPE     C31      CL       0.900000       12.0110           0
     18708 MEMB     150      PMPE     O32      OBL     -0.630000       15.9994           0
     18709 MEMB     150      PMPE     C32      CTL2    -0.220000       12.0110           0
     18710 MEMB     150      PMPE     H2X      HAL2     0.900000E-01   1.00800           0
     18711 MEMB     150      PMPE     H2Y      HAL2     0.900000E-01   1.00800           0
     18712 MEMB     150      PMPE     C23      CTL2    -0.180000       12.0110           0
     18713 MEMB     150      PMPE     H3R      HAL2     0.900000E-01   1.00800           0
     18714 MEMB     150      PMPE     H3S      HAL2     0.900000E-01   1.00800           0
     18715 MEMB     150      PMPE     C24      CTL2    -0.180000       12.0110           0
     18716 MEMB     150      PMPE     H4R      HAL2     0.900000E-01   1.00800           0
     18717 MEMB     150      PMPE     H4S      HAL2     0.900000E-01   1.00800           0
     18718 MEMB     150      PMPE     C25      CTL2    -0.180000       12.0110           0
     18719 MEMB     150      PMPE     H5R      HAL2     0.900000E-01   1.00800           0
     18720 MEMB     150      PMPE     H5S      HAL2     0.900000E-01   1.00800           0
     18721 MEMB     150      PMPE     C26      CTL2    -0.180000       12.0110           0
     18722 MEMB     150      PMPE     H6R      HAL2     0.900000E-01   1.00800           0
     18723 MEMB     150      PMPE     H6S      HAL2     0.900000E-01   1.00800           0
     18724 MEMB     150      PMPE     C27      CTL2    -0.180000       12.0110           0
     18725 MEMB     150      PMPE     H7R      HAL2     0.900000E-01   1.00800           0
     18726 MEMB     150      PMPE     H7S      HAL2     0.900000E-01   1.00800           0
     18727 MEMB     150      PMPE     C28      CTL2    -0.180000       12.0110           0
     18728 MEMB     150      PMPE     H8R      HAL2     0.900000E-01   1.00800           0
     18729 MEMB     150      PMPE     H8S      HAL2     0.900000E-01   1.00800           0
     18730 MEMB     150      PMPE     C29      CG3RC1  -0.900000E-01   12.0110           0
     18731 MEMB     150      PMPE     H9R      HGA1     0.900000E-01   1.00800           0
     18732 MEMB     150      PMPE     C217     CG3C31  -0.180000       12.0110           0
     18733 MEMB     150      PMPE     H17R     HGA2     0.900000E-01   1.00800           0
     18734 MEMB     150      PMPE     H17S     HGA2     0.900000E-01   1.00800           0
     18735 MEMB     150      PMPE     C210     CG3RC1  -0.900000E-01   12.0110           0
     18736 MEMB     150      PMPE     H10R     HGA1     0.900000E-01   1.00800           0
     18737 MEMB     150      PMPE     C211     CTL2    -0.180000       12.0110           0
     18738 MEMB     150      PMPE     H11R     HAL2     0.900000E-01   1.00800           0
     18739 MEMB     150      PMPE     H11S     HAL2     0.900000E-01   1.00800           0
     18740 MEMB     150      PMPE     C212     CTL2    -0.180000       12.0110           0
     18741 MEMB     150      PMPE     H12R     HAL2     0.900000E-01   1.00800           0
     18742 MEMB     150      PMPE     H12S     HAL2     0.900000E-01   1.00800           0
     18743 MEMB     150      PMPE     C213     CTL2    -0.180000       12.0110           0
     18744 MEMB     150      PMPE     H13R     HAL2     0.900000E-01   1.00800           0
     18745 MEMB     150      PMPE     H13S     HAL2     0.900000E-01   1.00800           0
     18746 MEMB     150      PMPE     C214     CTL2    -0.180000       12.0110           0
     18747 MEMB     150      PMPE     H14R     HAL2     0.900000E-01   1.00800           0
     18748 MEMB     150      PMPE     H14S     HAL2     0.900000E-01   1.00800           0
     18749 MEMB     150      PMPE     C215     CTL2    -0.180000       12.0110           0
     18750 MEMB     150      PMPE     H15R     HAL2     0.900000E-01   1.00800           0
     18751 MEMB     150      PMPE     H15S     HAL2     0.900000E-01   1.00800           0
     18752 MEMB     150      PMPE     C216     CTL3    -0.270000       12.0110           0
     18753 MEMB     150      PMPE     H16R     HAL3     0.900000E-01   1.00800           0
     18754 MEMB     150      PMPE     H16S     HAL3     0.900000E-01   1.00800           0
     18755 MEMB     150      PMPE     H16T     HAL3     0.900000E-01   1.00800           0
     18756 MEMB     150      PMPE     C33      CTL2    -0.180000       12.0110           0
     18757 MEMB     150      PMPE     H3X      HAL2     0.900000E-01   1.00800           0
     18758 MEMB     150      PMPE     H3Y      HAL2     0.900000E-01   1.00800           0
     18759 MEMB     150      PMPE     C34      CTL2    -0.180000       12.0110           0
     18760 MEMB     150      PMPE     H4X      HAL2     0.900000E-01   1.00800           0
     18761 MEMB     150      PMPE     H4Y      HAL2     0.900000E-01   1.00800           0
     18762 MEMB     150      PMPE     C35      CTL2    -0.180000       12.0110           0
     18763 MEMB     150      PMPE     H5X      HAL2     0.900000E-01   1.00800           0
     18764 MEMB     150      PMPE     H5Y      HAL2     0.900000E-01   1.00800           0
     18765 MEMB     150      PMPE     C36      CTL2    -0.180000       12.0110           0
     18766 MEMB     150      PMPE     H6X      HAL2     0.900000E-01   1.00800           0
     18767 MEMB     150      PMPE     H6Y      HAL2     0.900000E-01   1.00800           0
     18768 MEMB     150      PMPE     C37      CTL2    -0.180000       12.0110           0
     18769 MEMB     150      PMPE     H7X      HAL2     0.900000E-01   1.00800           0
     18770 MEMB     150      PMPE     H7Y      HAL2     0.900000E-01   1.00800           0
     18771 MEMB     150      PMPE     C38      CTL2    -0.180000       12.0110           0
     18772 MEMB     150      PMPE     H8X      HAL2     0.900000E-01   1.00800           0
     18773 MEMB     150      PMPE     H8Y      HAL2     0.900000E-01   1.00800           0
     18774 MEMB     150      PMPE     C39      CTL2    -0.180000       12.0110           0
     18775 MEMB     150      PMPE     H9X      HAL2     0.900000E-01   1.00800           0
     18776 MEMB     150      PMPE     H9Y      HAL2     0.900000E-01   1.00800           0
     18777 MEMB     150      PMPE     C310     CTL2    -0.180000       12.0110           0
     18778 MEMB     150      PMPE     H10X     HAL2     0.900000E-01   1.00800           0
     18779 MEMB     150      PMPE     H10Y     HAL2     0.900000E-01   1.00800           0
     18780 MEMB     150      PMPE     C311     CTL2    -0.180000       12.0110           0
     18781 MEMB     150      PMPE     H11X     HAL2     0.900000E-01   1.00800           0
     18782 MEMB     150      PMPE     H11Y     HAL2     0.900000E-01   1.00800           0
     18783 MEMB     150      PMPE     C312     CTL2    -0.180000       12.0110           0
     18784 MEMB     150      PMPE     H12X     HAL2     0.900000E-01   1.00800           0
     18785 MEMB     150      PMPE     H12Y     HAL2     0.900000E-01   1.00800           0
     18786 MEMB     150      PMPE     C313     CTL2    -0.180000       12.0110           0
     18787 MEMB     150      PMPE     H13X     HAL2     0.900000E-01   1.00800           0
     18788 MEMB     150      PMPE     H13Y     HAL2     0.900000E-01   1.00800           0
     18789 MEMB     150      PMPE     C314     CTL2    -0.180000       12.0110           0
     18790 MEMB     150      PMPE     H14X     HAL2     0.900000E-01   1.00800           0
     18791 MEMB     150      PMPE     H14Y     HAL2     0.900000E-01   1.00800           0
     18792 MEMB     150      PMPE     C315     CTL2    -0.180000       12.0110           0
     18793 MEMB     150      PMPE     H15X     HAL2     0.900000E-01   1.00800           0
     18794 MEMB     150      PMPE     H15Y     HAL2     0.900000E-01   1.00800           0
     18795 MEMB     150      PMPE     C316     CTL3    -0.270000       12.0110           0
     18796 MEMB     150      PMPE     H16X     HAL3     0.900000E-01   1.00800           0
     18797 MEMB     150      PMPE     H16Y     HAL3     0.900000E-01   1.00800           0
     18798 MEMB     150      PMPE     H16Z     HAL3     0.900000E-01   1.00800           0
     18799 MEMB     151      PMPE     N        NH3L    -0.300000       14.0070           0
     18800 MEMB     151      PMPE     HN1      HCL      0.330000       1.00800           0
     18801 MEMB     151      PMPE     HN2      HCL      0.330000       1.00800           0
     18802 MEMB     151      PMPE     HN3      HCL      0.330000       1.00800           0
     18803 MEMB     151      PMPE     C12      CTL2     0.130000       12.0110           0
     18804 MEMB     151      PMPE     H12A     HAL2     0.900000E-01   1.00800           0
     18805 MEMB     151      PMPE     H12B     HAL2     0.900000E-01   1.00800           0
     18806 MEMB     151      PMPE     C11      CTL2    -0.800000E-01   12.0110           0
     18807 MEMB     151      PMPE     H11A     HAL2     0.900000E-01   1.00800           0
     18808 MEMB     151      PMPE     H11B     HAL2     0.900000E-01   1.00800           0
     18809 MEMB     151      PMPE     P        PL        1.50000       30.9740           0
     18810 MEMB     151      PMPE     O13      O2L     -0.780000       15.9994           0
     18811 MEMB     151      PMPE     O14      O2L     -0.780000       15.9994           0
     18812 MEMB     151      PMPE     O11      OSLP    -0.570000       15.9994           0
     18813 MEMB     151      PMPE     O12      OSLP    -0.570000       15.9994           0
     18814 MEMB     151      PMPE     C1       CTL2    -0.800000E-01   12.0110           0
     18815 MEMB     151      PMPE     HA       HAL2     0.900000E-01   1.00800           0
     18816 MEMB     151      PMPE     HB       HAL2     0.900000E-01   1.00800           0
     18817 MEMB     151      PMPE     C2       CTL1     0.170000       12.0110           0
     18818 MEMB     151      PMPE     HS       HAL1     0.900000E-01   1.00800           0
     18819 MEMB     151      PMPE     O21      OSL     -0.490000       15.9994           0
     18820 MEMB     151      PMPE     C21      CL       0.900000       12.0110           0
     18821 MEMB     151      PMPE     O22      OBL     -0.630000       15.9994           0
     18822 MEMB     151      PMPE     C22      CTL2    -0.220000       12.0110           0
     18823 MEMB     151      PMPE     H2R      HAL2     0.900000E-01   1.00800           0
     18824 MEMB     151      PMPE     H2S      HAL2     0.900000E-01   1.00800           0
     18825 MEMB     151      PMPE     C3       CTL2     0.800000E-01   12.0110           0
     18826 MEMB     151      PMPE     HX       HAL2     0.900000E-01   1.00800           0
     18827 MEMB     151      PMPE     HY       HAL2     0.900000E-01   1.00800           0
     18828 MEMB     151      PMPE     O31      OSL     -0.490000       15.9994           0
     18829 MEMB     151      PMPE     C31      CL       0.900000       12.0110           0
     18830 MEMB     151      PMPE     O32      OBL     -0.630000       15.9994           0
     18831 MEMB     151      PMPE     C32      CTL2    -0.220000       12.0110           0
     18832 MEMB     151      PMPE     H2X      HAL2     0.900000E-01   1.00800           0
     18833 MEMB     151      PMPE     H2Y      HAL2     0.900000E-01   1.00800           0
     18834 MEMB     151      PMPE     C23      CTL2    -0.180000       12.0110           0
     18835 MEMB     151      PMPE     H3R      HAL2     0.900000E-01   1.00800           0
     18836 MEMB     151      PMPE     H3S      HAL2     0.900000E-01   1.00800           0
     18837 MEMB     151      PMPE     C24      CTL2    -0.180000       12.0110           0
     18838 MEMB     151      PMPE     H4R      HAL2     0.900000E-01   1.00800           0
     18839 MEMB     151      PMPE     H4S      HAL2     0.900000E-01   1.00800           0
     18840 MEMB     151      PMPE     C25      CTL2    -0.180000       12.0110           0
     18841 MEMB     151      PMPE     H5R      HAL2     0.900000E-01   1.00800           0
     18842 MEMB     151      PMPE     H5S      HAL2     0.900000E-01   1.00800           0
     18843 MEMB     151      PMPE     C26      CTL2    -0.180000       12.0110           0
     18844 MEMB     151      PMPE     H6R      HAL2     0.900000E-01   1.00800           0
     18845 MEMB     151      PMPE     H6S      HAL2     0.900000E-01   1.00800           0
     18846 MEMB     151      PMPE     C27      CTL2    -0.180000       12.0110           0
     18847 MEMB     151      PMPE     H7R      HAL2     0.900000E-01   1.00800           0
     18848 MEMB     151      PMPE     H7S      HAL2     0.900000E-01   1.00800           0
     18849 MEMB     151      PMPE     C28      CTL2    -0.180000       12.0110           0
     18850 MEMB     151      PMPE     H8R      HAL2     0.900000E-01   1.00800           0
     18851 MEMB     151      PMPE     H8S      HAL2     0.900000E-01   1.00800           0
     18852 MEMB     151      PMPE     C29      CG3RC1  -0.900000E-01   12.0110           0
     18853 MEMB     151      PMPE     H9R      HGA1     0.900000E-01   1.00800           0
     18854 MEMB     151      PMPE     C217     CG3C31  -0.180000       12.0110           0
     18855 MEMB     151      PMPE     H17R     HGA2     0.900000E-01   1.00800           0
     18856 MEMB     151      PMPE     H17S     HGA2     0.900000E-01   1.00800           0
     18857 MEMB     151      PMPE     C210     CG3RC1  -0.900000E-01   12.0110           0
     18858 MEMB     151      PMPE     H10R     HGA1     0.900000E-01   1.00800           0
     18859 MEMB     151      PMPE     C211     CTL2    -0.180000       12.0110           0
     18860 MEMB     151      PMPE     H11R     HAL2     0.900000E-01   1.00800           0
     18861 MEMB     151      PMPE     H11S     HAL2     0.900000E-01   1.00800           0
     18862 MEMB     151      PMPE     C212     CTL2    -0.180000       12.0110           0
     18863 MEMB     151      PMPE     H12R     HAL2     0.900000E-01   1.00800           0
     18864 MEMB     151      PMPE     H12S     HAL2     0.900000E-01   1.00800           0
     18865 MEMB     151      PMPE     C213     CTL2    -0.180000       12.0110           0
     18866 MEMB     151      PMPE     H13R     HAL2     0.900000E-01   1.00800           0
     18867 MEMB     151      PMPE     H13S     HAL2     0.900000E-01   1.00800           0
     18868 MEMB     151      PMPE     C214     CTL2    -0.180000       12.0110           0
     18869 MEMB     151      PMPE     H14R     HAL2     0.900000E-01   1.00800           0
     18870 MEMB     151      PMPE     H14S     HAL2     0.900000E-01   1.00800           0
     18871 MEMB     151      PMPE     C215     CTL2    -0.180000       12.0110           0
     18872 MEMB     151      PMPE     H15R     HAL2     0.900000E-01   1.00800           0
     18873 MEMB     151      PMPE     H15S     HAL2     0.900000E-01   1.00800           0
     18874 MEMB     151      PMPE     C216     CTL3    -0.270000       12.0110           0
     18875 MEMB     151      PMPE     H16R     HAL3     0.900000E-01   1.00800           0
     18876 MEMB     151      PMPE     H16S     HAL3     0.900000E-01   1.00800           0
     18877 MEMB     151      PMPE     H16T     HAL3     0.900000E-01   1.00800           0
     18878 MEMB     151      PMPE     C33      CTL2    -0.180000       12.0110           0
     18879 MEMB     151      PMPE     H3X      HAL2     0.900000E-01   1.00800           0
     18880 MEMB     151      PMPE     H3Y      HAL2     0.900000E-01   1.00800           0
     18881 MEMB     151      PMPE     C34      CTL2    -0.180000       12.0110           0
     18882 MEMB     151      PMPE     H4X      HAL2     0.900000E-01   1.00800           0
     18883 MEMB     151      PMPE     H4Y      HAL2     0.900000E-01   1.00800           0
     18884 MEMB     151      PMPE     C35      CTL2    -0.180000       12.0110           0
     18885 MEMB     151      PMPE     H5X      HAL2     0.900000E-01   1.00800           0
     18886 MEMB     151      PMPE     H5Y      HAL2     0.900000E-01   1.00800           0
     18887 MEMB     151      PMPE     C36      CTL2    -0.180000       12.0110           0
     18888 MEMB     151      PMPE     H6X      HAL2     0.900000E-01   1.00800           0
     18889 MEMB     151      PMPE     H6Y      HAL2     0.900000E-01   1.00800           0
     18890 MEMB     151      PMPE     C37      CTL2    -0.180000       12.0110           0
     18891 MEMB     151      PMPE     H7X      HAL2     0.900000E-01   1.00800           0
     18892 MEMB     151      PMPE     H7Y      HAL2     0.900000E-01   1.00800           0
     18893 MEMB     151      PMPE     C38      CTL2    -0.180000       12.0110           0
     18894 MEMB     151      PMPE     H8X      HAL2     0.900000E-01   1.00800           0
     18895 MEMB     151      PMPE     H8Y      HAL2     0.900000E-01   1.00800           0
     18896 MEMB     151      PMPE     C39      CTL2    -0.180000       12.0110           0
     18897 MEMB     151      PMPE     H9X      HAL2     0.900000E-01   1.00800           0
     18898 MEMB     151      PMPE     H9Y      HAL2     0.900000E-01   1.00800           0
     18899 MEMB     151      PMPE     C310     CTL2    -0.180000       12.0110           0
     18900 MEMB     151      PMPE     H10X     HAL2     0.900000E-01   1.00800           0
     18901 MEMB     151      PMPE     H10Y     HAL2     0.900000E-01   1.00800           0
     18902 MEMB     151      PMPE     C311     CTL2    -0.180000       12.0110           0
     18903 MEMB     151      PMPE     H11X     HAL2     0.900000E-01   1.00800           0
     18904 MEMB     151      PMPE     H11Y     HAL2     0.900000E-01   1.00800           0
     18905 MEMB     151      PMPE     C312     CTL2    -0.180000       12.0110           0
     18906 MEMB     151      PMPE     H12X     HAL2     0.900000E-01   1.00800           0
     18907 MEMB     151      PMPE     H12Y     HAL2     0.900000E-01   1.00800           0
     18908 MEMB     151      PMPE     C313     CTL2    -0.180000       12.0110           0
     18909 MEMB     151      PMPE     H13X     HAL2     0.900000E-01   1.00800           0
     18910 MEMB     151      PMPE     H13Y     HAL2     0.900000E-01   1.00800           0
     18911 MEMB     151      PMPE     C314     CTL2    -0.180000       12.0110           0
     18912 MEMB     151      PMPE     H14X     HAL2     0.900000E-01   1.00800           0
     18913 MEMB     151      PMPE     H14Y     HAL2     0.900000E-01   1.00800           0
     18914 MEMB     151      PMPE     C315     CTL2    -0.180000       12.0110           0
     18915 MEMB     151      PMPE     H15X     HAL2     0.900000E-01   1.00800           0
     18916 MEMB     151      PMPE     H15Y     HAL2     0.900000E-01   1.00800           0
     18917 MEMB     151      PMPE     C316     CTL3    -0.270000       12.0110           0
     18918 MEMB     151      PMPE     H16X     HAL3     0.900000E-01   1.00800           0
     18919 MEMB     151      PMPE     H16Y     HAL3     0.900000E-01   1.00800           0
     18920 MEMB     151      PMPE     H16Z     HAL3     0.900000E-01   1.00800           0
     18921 MEMB     152      PMPE     N        NH3L    -0.300000       14.0070           0
     18922 MEMB     152      PMPE     HN1      HCL      0.330000       1.00800           0
     18923 MEMB     152      PMPE     HN2      HCL      0.330000       1.00800           0
     18924 MEMB     152      PMPE     HN3      HCL      0.330000       1.00800           0
     18925 MEMB     152      PMPE     C12      CTL2     0.130000       12.0110           0
     18926 MEMB     152      PMPE     H12A     HAL2     0.900000E-01   1.00800           0
     18927 MEMB     152      PMPE     H12B     HAL2     0.900000E-01   1.00800           0
     18928 MEMB     152      PMPE     C11      CTL2    -0.800000E-01   12.0110           0
     18929 MEMB     152      PMPE     H11A     HAL2     0.900000E-01   1.00800           0
     18930 MEMB     152      PMPE     H11B     HAL2     0.900000E-01   1.00800           0
     18931 MEMB     152      PMPE     P        PL        1.50000       30.9740           0
     18932 MEMB     152      PMPE     O13      O2L     -0.780000       15.9994           0
     18933 MEMB     152      PMPE     O14      O2L     -0.780000       15.9994           0
     18934 MEMB     152      PMPE     O11      OSLP    -0.570000       15.9994           0
     18935 MEMB     152      PMPE     O12      OSLP    -0.570000       15.9994           0
     18936 MEMB     152      PMPE     C1       CTL2    -0.800000E-01   12.0110           0
     18937 MEMB     152      PMPE     HA       HAL2     0.900000E-01   1.00800           0
     18938 MEMB     152      PMPE     HB       HAL2     0.900000E-01   1.00800           0
     18939 MEMB     152      PMPE     C2       CTL1     0.170000       12.0110           0
     18940 MEMB     152      PMPE     HS       HAL1     0.900000E-01   1.00800           0
     18941 MEMB     152      PMPE     O21      OSL     -0.490000       15.9994           0
     18942 MEMB     152      PMPE     C21      CL       0.900000       12.0110           0
     18943 MEMB     152      PMPE     O22      OBL     -0.630000       15.9994           0
     18944 MEMB     152      PMPE     C22      CTL2    -0.220000       12.0110           0
     18945 MEMB     152      PMPE     H2R      HAL2     0.900000E-01   1.00800           0
     18946 MEMB     152      PMPE     H2S      HAL2     0.900000E-01   1.00800           0
     18947 MEMB     152      PMPE     C3       CTL2     0.800000E-01   12.0110           0
     18948 MEMB     152      PMPE     HX       HAL2     0.900000E-01   1.00800           0
     18949 MEMB     152      PMPE     HY       HAL2     0.900000E-01   1.00800           0
     18950 MEMB     152      PMPE     O31      OSL     -0.490000       15.9994           0
     18951 MEMB     152      PMPE     C31      CL       0.900000       12.0110           0
     18952 MEMB     152      PMPE     O32      OBL     -0.630000       15.9994           0
     18953 MEMB     152      PMPE     C32      CTL2    -0.220000       12.0110           0
     18954 MEMB     152      PMPE     H2X      HAL2     0.900000E-01   1.00800           0
     18955 MEMB     152      PMPE     H2Y      HAL2     0.900000E-01   1.00800           0
     18956 MEMB     152      PMPE     C23      CTL2    -0.180000       12.0110           0
     18957 MEMB     152      PMPE     H3R      HAL2     0.900000E-01   1.00800           0
     18958 MEMB     152      PMPE     H3S      HAL2     0.900000E-01   1.00800           0
     18959 MEMB     152      PMPE     C24      CTL2    -0.180000       12.0110           0
     18960 MEMB     152      PMPE     H4R      HAL2     0.900000E-01   1.00800           0
     18961 MEMB     152      PMPE     H4S      HAL2     0.900000E-01   1.00800           0
     18962 MEMB     152      PMPE     C25      CTL2    -0.180000       12.0110           0
     18963 MEMB     152      PMPE     H5R      HAL2     0.900000E-01   1.00800           0
     18964 MEMB     152      PMPE     H5S      HAL2     0.900000E-01   1.00800           0
     18965 MEMB     152      PMPE     C26      CTL2    -0.180000       12.0110           0
     18966 MEMB     152      PMPE     H6R      HAL2     0.900000E-01   1.00800           0
     18967 MEMB     152      PMPE     H6S      HAL2     0.900000E-01   1.00800           0
     18968 MEMB     152      PMPE     C27      CTL2    -0.180000       12.0110           0
     18969 MEMB     152      PMPE     H7R      HAL2     0.900000E-01   1.00800           0
     18970 MEMB     152      PMPE     H7S      HAL2     0.900000E-01   1.00800           0
     18971 MEMB     152      PMPE     C28      CTL2    -0.180000       12.0110           0
     18972 MEMB     152      PMPE     H8R      HAL2     0.900000E-01   1.00800           0
     18973 MEMB     152      PMPE     H8S      HAL2     0.900000E-01   1.00800           0
     18974 MEMB     152      PMPE     C29      CG3RC1  -0.900000E-01   12.0110           0
     18975 MEMB     152      PMPE     H9R      HGA1     0.900000E-01   1.00800           0
     18976 MEMB     152      PMPE     C217     CG3C31  -0.180000       12.0110           0
     18977 MEMB     152      PMPE     H17R     HGA2     0.900000E-01   1.00800           0
     18978 MEMB     152      PMPE     H17S     HGA2     0.900000E-01   1.00800           0
     18979 MEMB     152      PMPE     C210     CG3RC1  -0.900000E-01   12.0110           0
     18980 MEMB     152      PMPE     H10R     HGA1     0.900000E-01   1.00800           0
     18981 MEMB     152      PMPE     C211     CTL2    -0.180000       12.0110           0
     18982 MEMB     152      PMPE     H11R     HAL2     0.900000E-01   1.00800           0
     18983 MEMB     152      PMPE     H11S     HAL2     0.900000E-01   1.00800           0
     18984 MEMB     152      PMPE     C212     CTL2    -0.180000       12.0110           0
     18985 MEMB     152      PMPE     H12R     HAL2     0.900000E-01   1.00800           0
     18986 MEMB     152      PMPE     H12S     HAL2     0.900000E-01   1.00800           0
     18987 MEMB     152      PMPE     C213     CTL2    -0.180000       12.0110           0
     18988 MEMB     152      PMPE     H13R     HAL2     0.900000E-01   1.00800           0
     18989 MEMB     152      PMPE     H13S     HAL2     0.900000E-01   1.00800           0
     18990 MEMB     152      PMPE     C214     CTL2    -0.180000       12.0110           0
     18991 MEMB     152      PMPE     H14R     HAL2     0.900000E-01   1.00800           0
     18992 MEMB     152      PMPE     H14S     HAL2     0.900000E-01   1.00800           0
     18993 MEMB     152      PMPE     C215     CTL2    -0.180000       12.0110           0
     18994 MEMB     152      PMPE     H15R     HAL2     0.900000E-01   1.00800           0
     18995 MEMB     152      PMPE     H15S     HAL2     0.900000E-01   1.00800           0
     18996 MEMB     152      PMPE     C216     CTL3    -0.270000       12.0110           0
     18997 MEMB     152      PMPE     H16R     HAL3     0.900000E-01   1.00800           0
     18998 MEMB     152      PMPE     H16S     HAL3     0.900000E-01   1.00800           0
     18999 MEMB     152      PMPE     H16T     HAL3     0.900000E-01   1.00800           0
     19000 MEMB     152      PMPE     C33      CTL2    -0.180000       12.0110           0
     19001 MEMB     152      PMPE     H3X      HAL2     0.900000E-01   1.00800           0
     19002 MEMB     152      PMPE     H3Y      HAL2     0.900000E-01   1.00800           0
     19003 MEMB     152      PMPE     C34      CTL2    -0.180000       12.0110           0
     19004 MEMB     152      PMPE     H4X      HAL2     0.900000E-01   1.00800           0
     19005 MEMB     152      PMPE     H4Y      HAL2     0.900000E-01   1.00800           0
     19006 MEMB     152      PMPE     C35      CTL2    -0.180000       12.0110           0
     19007 MEMB     152      PMPE     H5X      HAL2     0.900000E-01   1.00800           0
     19008 MEMB     152      PMPE     H5Y      HAL2     0.900000E-01   1.00800           0
     19009 MEMB     152      PMPE     C36      CTL2    -0.180000       12.0110           0
     19010 MEMB     152      PMPE     H6X      HAL2     0.900000E-01   1.00800           0
     19011 MEMB     152      PMPE     H6Y      HAL2     0.900000E-01   1.00800           0
     19012 MEMB     152      PMPE     C37      CTL2    -0.180000       12.0110           0
     19013 MEMB     152      PMPE     H7X      HAL2     0.900000E-01   1.00800           0
     19014 MEMB     152      PMPE     H7Y      HAL2     0.900000E-01   1.00800           0
     19015 MEMB     152      PMPE     C38      CTL2    -0.180000       12.0110           0
     19016 MEMB     152      PMPE     H8X      HAL2     0.900000E-01   1.00800           0
     19017 MEMB     152      PMPE     H8Y      HAL2     0.900000E-01   1.00800           0
     19018 MEMB     152      PMPE     C39      CTL2    -0.180000       12.0110           0
     19019 MEMB     152      PMPE     H9X      HAL2     0.900000E-01   1.00800           0
     19020 MEMB     152      PMPE     H9Y      HAL2     0.900000E-01   1.00800           0
     19021 MEMB     152      PMPE     C310     CTL2    -0.180000       12.0110           0
     19022 MEMB     152      PMPE     H10X     HAL2     0.900000E-01   1.00800           0
     19023 MEMB     152      PMPE     H10Y     HAL2     0.900000E-01   1.00800           0
     19024 MEMB     152      PMPE     C311     CTL2    -0.180000       12.0110           0
     19025 MEMB     152      PMPE     H11X     HAL2     0.900000E-01   1.00800           0
     19026 MEMB     152      PMPE     H11Y     HAL2     0.900000E-01   1.00800           0
     19027 MEMB     152      PMPE     C312     CTL2    -0.180000       12.0110           0
     19028 MEMB     152      PMPE     H12X     HAL2     0.900000E-01   1.00800           0
     19029 MEMB     152      PMPE     H12Y     HAL2     0.900000E-01   1.00800           0
     19030 MEMB     152      PMPE     C313     CTL2    -0.180000       12.0110           0
     19031 MEMB     152      PMPE     H13X     HAL2     0.900000E-01   1.00800           0
     19032 MEMB     152      PMPE     H13Y     HAL2     0.900000E-01   1.00800           0
     19033 MEMB     152      PMPE     C314     CTL2    -0.180000       12.0110           0
     19034 MEMB     152      PMPE     H14X     HAL2     0.900000E-01   1.00800           0
     19035 MEMB     152      PMPE     H14Y     HAL2     0.900000E-01   1.00800           0
     19036 MEMB     152      PMPE     C315     CTL2    -0.180000       12.0110           0
     19037 MEMB     152      PMPE     H15X     HAL2     0.900000E-01   1.00800           0
     19038 MEMB     152      PMPE     H15Y     HAL2     0.900000E-01   1.00800           0
     19039 MEMB     152      PMPE     C316     CTL3    -0.270000       12.0110           0
     19040 MEMB     152      PMPE     H16X     HAL3     0.900000E-01   1.00800           0
     19041 MEMB     152      PMPE     H16Y     HAL3     0.900000E-01   1.00800           0
     19042 MEMB     152      PMPE     H16Z     HAL3     0.900000E-01   1.00800           0
     19043 MEMB     153      PMPE     N        NH3L    -0.300000       14.0070           0
     19044 MEMB     153      PMPE     HN1      HCL      0.330000       1.00800           0
     19045 MEMB     153      PMPE     HN2      HCL      0.330000       1.00800           0
     19046 MEMB     153      PMPE     HN3      HCL      0.330000       1.00800           0
     19047 MEMB     153      PMPE     C12      CTL2     0.130000       12.0110           0
     19048 MEMB     153      PMPE     H12A     HAL2     0.900000E-01   1.00800           0
     19049 MEMB     153      PMPE     H12B     HAL2     0.900000E-01   1.00800           0
     19050 MEMB     153      PMPE     C11      CTL2    -0.800000E-01   12.0110           0
     19051 MEMB     153      PMPE     H11A     HAL2     0.900000E-01   1.00800           0
     19052 MEMB     153      PMPE     H11B     HAL2     0.900000E-01   1.00800           0
     19053 MEMB     153      PMPE     P        PL        1.50000       30.9740           0
     19054 MEMB     153      PMPE     O13      O2L     -0.780000       15.9994           0
     19055 MEMB     153      PMPE     O14      O2L     -0.780000       15.9994           0
     19056 MEMB     153      PMPE     O11      OSLP    -0.570000       15.9994           0
     19057 MEMB     153      PMPE     O12      OSLP    -0.570000       15.9994           0
     19058 MEMB     153      PMPE     C1       CTL2    -0.800000E-01   12.0110           0
     19059 MEMB     153      PMPE     HA       HAL2     0.900000E-01   1.00800           0
     19060 MEMB     153      PMPE     HB       HAL2     0.900000E-01   1.00800           0
     19061 MEMB     153      PMPE     C2       CTL1     0.170000       12.0110           0
     19062 MEMB     153      PMPE     HS       HAL1     0.900000E-01   1.00800           0
     19063 MEMB     153      PMPE     O21      OSL     -0.490000       15.9994           0
     19064 MEMB     153      PMPE     C21      CL       0.900000       12.0110           0
     19065 MEMB     153      PMPE     O22      OBL     -0.630000       15.9994           0
     19066 MEMB     153      PMPE     C22      CTL2    -0.220000       12.0110           0
     19067 MEMB     153      PMPE     H2R      HAL2     0.900000E-01   1.00800           0
     19068 MEMB     153      PMPE     H2S      HAL2     0.900000E-01   1.00800           0
     19069 MEMB     153      PMPE     C3       CTL2     0.800000E-01   12.0110           0
     19070 MEMB     153      PMPE     HX       HAL2     0.900000E-01   1.00800           0
     19071 MEMB     153      PMPE     HY       HAL2     0.900000E-01   1.00800           0
     19072 MEMB     153      PMPE     O31      OSL     -0.490000       15.9994           0
     19073 MEMB     153      PMPE     C31      CL       0.900000       12.0110           0
     19074 MEMB     153      PMPE     O32      OBL     -0.630000       15.9994           0
     19075 MEMB     153      PMPE     C32      CTL2    -0.220000       12.0110           0
     19076 MEMB     153      PMPE     H2X      HAL2     0.900000E-01   1.00800           0
     19077 MEMB     153      PMPE     H2Y      HAL2     0.900000E-01   1.00800           0
     19078 MEMB     153      PMPE     C23      CTL2    -0.180000       12.0110           0
     19079 MEMB     153      PMPE     H3R      HAL2     0.900000E-01   1.00800           0
     19080 MEMB     153      PMPE     H3S      HAL2     0.900000E-01   1.00800           0
     19081 MEMB     153      PMPE     C24      CTL2    -0.180000       12.0110           0
     19082 MEMB     153      PMPE     H4R      HAL2     0.900000E-01   1.00800           0
     19083 MEMB     153      PMPE     H4S      HAL2     0.900000E-01   1.00800           0
     19084 MEMB     153      PMPE     C25      CTL2    -0.180000       12.0110           0
     19085 MEMB     153      PMPE     H5R      HAL2     0.900000E-01   1.00800           0
     19086 MEMB     153      PMPE     H5S      HAL2     0.900000E-01   1.00800           0
     19087 MEMB     153      PMPE     C26      CTL2    -0.180000       12.0110           0
     19088 MEMB     153      PMPE     H6R      HAL2     0.900000E-01   1.00800           0
     19089 MEMB     153      PMPE     H6S      HAL2     0.900000E-01   1.00800           0
     19090 MEMB     153      PMPE     C27      CTL2    -0.180000       12.0110           0
     19091 MEMB     153      PMPE     H7R      HAL2     0.900000E-01   1.00800           0
     19092 MEMB     153      PMPE     H7S      HAL2     0.900000E-01   1.00800           0
     19093 MEMB     153      PMPE     C28      CTL2    -0.180000       12.0110           0
     19094 MEMB     153      PMPE     H8R      HAL2     0.900000E-01   1.00800           0
     19095 MEMB     153      PMPE     H8S      HAL2     0.900000E-01   1.00800           0
     19096 MEMB     153      PMPE     C29      CG3RC1  -0.900000E-01   12.0110           0
     19097 MEMB     153      PMPE     H9R      HGA1     0.900000E-01   1.00800           0
     19098 MEMB     153      PMPE     C217     CG3C31  -0.180000       12.0110           0
     19099 MEMB     153      PMPE     H17R     HGA2     0.900000E-01   1.00800           0
     19100 MEMB     153      PMPE     H17S     HGA2     0.900000E-01   1.00800           0
     19101 MEMB     153      PMPE     C210     CG3RC1  -0.900000E-01   12.0110           0
     19102 MEMB     153      PMPE     H10R     HGA1     0.900000E-01   1.00800           0
     19103 MEMB     153      PMPE     C211     CTL2    -0.180000       12.0110           0
     19104 MEMB     153      PMPE     H11R     HAL2     0.900000E-01   1.00800           0
     19105 MEMB     153      PMPE     H11S     HAL2     0.900000E-01   1.00800           0
     19106 MEMB     153      PMPE     C212     CTL2    -0.180000       12.0110           0
     19107 MEMB     153      PMPE     H12R     HAL2     0.900000E-01   1.00800           0
     19108 MEMB     153      PMPE     H12S     HAL2     0.900000E-01   1.00800           0
     19109 MEMB     153      PMPE     C213     CTL2    -0.180000       12.0110           0
     19110 MEMB     153      PMPE     H13R     HAL2     0.900000E-01   1.00800           0
     19111 MEMB     153      PMPE     H13S     HAL2     0.900000E-01   1.00800           0
     19112 MEMB     153      PMPE     C214     CTL2    -0.180000       12.0110           0
     19113 MEMB     153      PMPE     H14R     HAL2     0.900000E-01   1.00800           0
     19114 MEMB     153      PMPE     H14S     HAL2     0.900000E-01   1.00800           0
     19115 MEMB     153      PMPE     C215     CTL2    -0.180000       12.0110           0
     19116 MEMB     153      PMPE     H15R     HAL2     0.900000E-01   1.00800           0
     19117 MEMB     153      PMPE     H15S     HAL2     0.900000E-01   1.00800           0
     19118 MEMB     153      PMPE     C216     CTL3    -0.270000       12.0110           0
     19119 MEMB     153      PMPE     H16R     HAL3     0.900000E-01   1.00800           0
     19120 MEMB     153      PMPE     H16S     HAL3     0.900000E-01   1.00800           0
     19121 MEMB     153      PMPE     H16T     HAL3     0.900000E-01   1.00800           0
     19122 MEMB     153      PMPE     C33      CTL2    -0.180000       12.0110           0
     19123 MEMB     153      PMPE     H3X      HAL2     0.900000E-01   1.00800           0
     19124 MEMB     153      PMPE     H3Y      HAL2     0.900000E-01   1.00800           0
     19125 MEMB     153      PMPE     C34      CTL2    -0.180000       12.0110           0
     19126 MEMB     153      PMPE     H4X      HAL2     0.900000E-01   1.00800           0
     19127 MEMB     153      PMPE     H4Y      HAL2     0.900000E-01   1.00800           0
     19128 MEMB     153      PMPE     C35      CTL2    -0.180000       12.0110           0
     19129 MEMB     153      PMPE     H5X      HAL2     0.900000E-01   1.00800           0
     19130 MEMB     153      PMPE     H5Y      HAL2     0.900000E-01   1.00800           0
     19131 MEMB     153      PMPE     C36      CTL2    -0.180000       12.0110           0
     19132 MEMB     153      PMPE     H6X      HAL2     0.900000E-01   1.00800           0
     19133 MEMB     153      PMPE     H6Y      HAL2     0.900000E-01   1.00800           0
     19134 MEMB     153      PMPE     C37      CTL2    -0.180000       12.0110           0
     19135 MEMB     153      PMPE     H7X      HAL2     0.900000E-01   1.00800           0
     19136 MEMB     153      PMPE     H7Y      HAL2     0.900000E-01   1.00800           0
     19137 MEMB     153      PMPE     C38      CTL2    -0.180000       12.0110           0
     19138 MEMB     153      PMPE     H8X      HAL2     0.900000E-01   1.00800           0
     19139 MEMB     153      PMPE     H8Y      HAL2     0.900000E-01   1.00800           0
     19140 MEMB     153      PMPE     C39      CTL2    -0.180000       12.0110           0
     19141 MEMB     153      PMPE     H9X      HAL2     0.900000E-01   1.00800           0
     19142 MEMB     153      PMPE     H9Y      HAL2     0.900000E-01   1.00800           0
     19143 MEMB     153      PMPE     C310     CTL2    -0.180000       12.0110           0
     19144 MEMB     153      PMPE     H10X     HAL2     0.900000E-01   1.00800           0
     19145 MEMB     153      PMPE     H10Y     HAL2     0.900000E-01   1.00800           0
     19146 MEMB     153      PMPE     C311     CTL2    -0.180000       12.0110           0
     19147 MEMB     153      PMPE     H11X     HAL2     0.900000E-01   1.00800           0
     19148 MEMB     153      PMPE     H11Y     HAL2     0.900000E-01   1.00800           0
     19149 MEMB     153      PMPE     C312     CTL2    -0.180000       12.0110           0
     19150 MEMB     153      PMPE     H12X     HAL2     0.900000E-01   1.00800           0
     19151 MEMB     153      PMPE     H12Y     HAL2     0.900000E-01   1.00800           0
     19152 MEMB     153      PMPE     C313     CTL2    -0.180000       12.0110           0
     19153 MEMB     153      PMPE     H13X     HAL2     0.900000E-01   1.00800           0
     19154 MEMB     153      PMPE     H13Y     HAL2     0.900000E-01   1.00800           0
     19155 MEMB     153      PMPE     C314     CTL2    -0.180000       12.0110           0
     19156 MEMB     153      PMPE     H14X     HAL2     0.900000E-01   1.00800           0
     19157 MEMB     153      PMPE     H14Y     HAL2     0.900000E-01   1.00800           0
     19158 MEMB     153      PMPE     C315     CTL2    -0.180000       12.0110           0
     19159 MEMB     153      PMPE     H15X     HAL2     0.900000E-01   1.00800           0
     19160 MEMB     153      PMPE     H15Y     HAL2     0.900000E-01   1.00800           0
     19161 MEMB     153      PMPE     C316     CTL3    -0.270000       12.0110           0
     19162 MEMB     153      PMPE     H16X     HAL3     0.900000E-01   1.00800           0
     19163 MEMB     153      PMPE     H16Y     HAL3     0.900000E-01   1.00800           0
     19164 MEMB     153      PMPE     H16Z     HAL3     0.900000E-01   1.00800           0
     19165 MEMB     154      POPE     N        NH3L    -0.300000       14.0070           0
     19166 MEMB     154      POPE     HN1      HCL      0.330000       1.00800           0
     19167 MEMB     154      POPE     HN2      HCL      0.330000       1.00800           0
     19168 MEMB     154      POPE     HN3      HCL      0.330000       1.00800           0
     19169 MEMB     154      POPE     C12      CTL2     0.130000       12.0110           0
     19170 MEMB     154      POPE     H12A     HAL2     0.900000E-01   1.00800           0
     19171 MEMB     154      POPE     H12B     HAL2     0.900000E-01   1.00800           0
     19172 MEMB     154      POPE     C11      CTL2    -0.800000E-01   12.0110           0
     19173 MEMB     154      POPE     H11A     HAL2     0.900000E-01   1.00800           0
     19174 MEMB     154      POPE     H11B     HAL2     0.900000E-01   1.00800           0
     19175 MEMB     154      POPE     P        PL        1.50000       30.9740           0
     19176 MEMB     154      POPE     O13      O2L     -0.780000       15.9994           0
     19177 MEMB     154      POPE     O14      O2L     -0.780000       15.9994           0
     19178 MEMB     154      POPE     O11      OSLP    -0.570000       15.9994           0
     19179 MEMB     154      POPE     O12      OSLP    -0.570000       15.9994           0
     19180 MEMB     154      POPE     C1       CTL2    -0.800000E-01   12.0110           0
     19181 MEMB     154      POPE     HA       HAL2     0.900000E-01   1.00800           0
     19182 MEMB     154      POPE     HB       HAL2     0.900000E-01   1.00800           0
     19183 MEMB     154      POPE     C2       CTL1     0.170000       12.0110           0
     19184 MEMB     154      POPE     HS       HAL1     0.900000E-01   1.00800           0
     19185 MEMB     154      POPE     O21      OSL     -0.490000       15.9994           0
     19186 MEMB     154      POPE     C21      CL       0.900000       12.0110           0
     19187 MEMB     154      POPE     O22      OBL     -0.630000       15.9994           0
     19188 MEMB     154      POPE     C22      CTL2    -0.220000       12.0110           0
     19189 MEMB     154      POPE     H2R      HAL2     0.900000E-01   1.00800           0
     19190 MEMB     154      POPE     H2S      HAL2     0.900000E-01   1.00800           0
     19191 MEMB     154      POPE     C3       CTL2     0.800000E-01   12.0110           0
     19192 MEMB     154      POPE     HX       HAL2     0.900000E-01   1.00800           0
     19193 MEMB     154      POPE     HY       HAL2     0.900000E-01   1.00800           0
     19194 MEMB     154      POPE     O31      OSL     -0.490000       15.9994           0
     19195 MEMB     154      POPE     C31      CL       0.900000       12.0110           0
     19196 MEMB     154      POPE     O32      OBL     -0.630000       15.9994           0
     19197 MEMB     154      POPE     C32      CTL2    -0.220000       12.0110           0
     19198 MEMB     154      POPE     H2X      HAL2     0.900000E-01   1.00800           0
     19199 MEMB     154      POPE     H2Y      HAL2     0.900000E-01   1.00800           0
     19200 MEMB     154      POPE     C23      CTL2    -0.180000       12.0110           0
     19201 MEMB     154      POPE     H3R      HAL2     0.900000E-01   1.00800           0
     19202 MEMB     154      POPE     H3S      HAL2     0.900000E-01   1.00800           0
     19203 MEMB     154      POPE     C24      CTL2    -0.180000       12.0110           0
     19204 MEMB     154      POPE     H4R      HAL2     0.900000E-01   1.00800           0
     19205 MEMB     154      POPE     H4S      HAL2     0.900000E-01   1.00800           0
     19206 MEMB     154      POPE     C25      CTL2    -0.180000       12.0110           0
     19207 MEMB     154      POPE     H5R      HAL2     0.900000E-01   1.00800           0
     19208 MEMB     154      POPE     H5S      HAL2     0.900000E-01   1.00800           0
     19209 MEMB     154      POPE     C26      CTL2    -0.180000       12.0110           0
     19210 MEMB     154      POPE     H6R      HAL2     0.900000E-01   1.00800           0
     19211 MEMB     154      POPE     H6S      HAL2     0.900000E-01   1.00800           0
     19212 MEMB     154      POPE     C27      CTL2    -0.180000       12.0110           0
     19213 MEMB     154      POPE     H7R      HAL2     0.900000E-01   1.00800           0
     19214 MEMB     154      POPE     H7S      HAL2     0.900000E-01   1.00800           0
     19215 MEMB     154      POPE     C28      CTL2    -0.180000       12.0110           0
     19216 MEMB     154      POPE     H8R      HAL2     0.900000E-01   1.00800           0
     19217 MEMB     154      POPE     H8S      HAL2     0.900000E-01   1.00800           0
     19218 MEMB     154      POPE     C29      CEL1    -0.150000       12.0110           0
     19219 MEMB     154      POPE     H91      HEL1     0.150000       1.00800           0
     19220 MEMB     154      POPE     C210     CEL1    -0.150000       12.0110           0
     19221 MEMB     154      POPE     H101     HEL1     0.150000       1.00800           0
     19222 MEMB     154      POPE     C211     CTL2    -0.180000       12.0110           0
     19223 MEMB     154      POPE     H11R     HAL2     0.900000E-01   1.00800           0
     19224 MEMB     154      POPE     H11S     HAL2     0.900000E-01   1.00800           0
     19225 MEMB     154      POPE     C212     CTL2    -0.180000       12.0110           0
     19226 MEMB     154      POPE     H12R     HAL2     0.900000E-01   1.00800           0
     19227 MEMB     154      POPE     H12S     HAL2     0.900000E-01   1.00800           0
     19228 MEMB     154      POPE     C213     CTL2    -0.180000       12.0110           0
     19229 MEMB     154      POPE     H13R     HAL2     0.900000E-01   1.00800           0
     19230 MEMB     154      POPE     H13S     HAL2     0.900000E-01   1.00800           0
     19231 MEMB     154      POPE     C214     CTL2    -0.180000       12.0110           0
     19232 MEMB     154      POPE     H14R     HAL2     0.900000E-01   1.00800           0
     19233 MEMB     154      POPE     H14S     HAL2     0.900000E-01   1.00800           0
     19234 MEMB     154      POPE     C215     CTL2    -0.180000       12.0110           0
     19235 MEMB     154      POPE     H15R     HAL2     0.900000E-01   1.00800           0
     19236 MEMB     154      POPE     H15S     HAL2     0.900000E-01   1.00800           0
     19237 MEMB     154      POPE     C216     CTL2    -0.180000       12.0110           0
     19238 MEMB     154      POPE     H16R     HAL2     0.900000E-01   1.00800           0
     19239 MEMB     154      POPE     H16S     HAL2     0.900000E-01   1.00800           0
     19240 MEMB     154      POPE     C217     CTL2    -0.180000       12.0110           0
     19241 MEMB     154      POPE     H17R     HAL2     0.900000E-01   1.00800           0
     19242 MEMB     154      POPE     H17S     HAL2     0.900000E-01   1.00800           0
     19243 MEMB     154      POPE     C218     CTL3    -0.270000       12.0110           0
     19244 MEMB     154      POPE     H18R     HAL3     0.900000E-01   1.00800           0
     19245 MEMB     154      POPE     H18S     HAL3     0.900000E-01   1.00800           0
     19246 MEMB     154      POPE     H18T     HAL3     0.900000E-01   1.00800           0
     19247 MEMB     154      POPE     C33      CTL2    -0.180000       12.0110           0
     19248 MEMB     154      POPE     H3X      HAL2     0.900000E-01   1.00800           0
     19249 MEMB     154      POPE     H3Y      HAL2     0.900000E-01   1.00800           0
     19250 MEMB     154      POPE     C34      CTL2    -0.180000       12.0110           0
     19251 MEMB     154      POPE     H4X      HAL2     0.900000E-01   1.00800           0
     19252 MEMB     154      POPE     H4Y      HAL2     0.900000E-01   1.00800           0
     19253 MEMB     154      POPE     C35      CTL2    -0.180000       12.0110           0
     19254 MEMB     154      POPE     H5X      HAL2     0.900000E-01   1.00800           0
     19255 MEMB     154      POPE     H5Y      HAL2     0.900000E-01   1.00800           0
     19256 MEMB     154      POPE     C36      CTL2    -0.180000       12.0110           0
     19257 MEMB     154      POPE     H6X      HAL2     0.900000E-01   1.00800           0
     19258 MEMB     154      POPE     H6Y      HAL2     0.900000E-01   1.00800           0
     19259 MEMB     154      POPE     C37      CTL2    -0.180000       12.0110           0
     19260 MEMB     154      POPE     H7X      HAL2     0.900000E-01   1.00800           0
     19261 MEMB     154      POPE     H7Y      HAL2     0.900000E-01   1.00800           0
     19262 MEMB     154      POPE     C38      CTL2    -0.180000       12.0110           0
     19263 MEMB     154      POPE     H8X      HAL2     0.900000E-01   1.00800           0
     19264 MEMB     154      POPE     H8Y      HAL2     0.900000E-01   1.00800           0
     19265 MEMB     154      POPE     C39      CTL2    -0.180000       12.0110           0
     19266 MEMB     154      POPE     H9X      HAL2     0.900000E-01   1.00800           0
     19267 MEMB     154      POPE     H9Y      HAL2     0.900000E-01   1.00800           0
     19268 MEMB     154      POPE     C310     CTL2    -0.180000       12.0110           0
     19269 MEMB     154      POPE     H10X     HAL2     0.900000E-01   1.00800           0
     19270 MEMB     154      POPE     H10Y     HAL2     0.900000E-01   1.00800           0
     19271 MEMB     154      POPE     C311     CTL2    -0.180000       12.0110           0
     19272 MEMB     154      POPE     H11X     HAL2     0.900000E-01   1.00800           0
     19273 MEMB     154      POPE     H11Y     HAL2     0.900000E-01   1.00800           0
     19274 MEMB     154      POPE     C312     CTL2    -0.180000       12.0110           0
     19275 MEMB     154      POPE     H12X     HAL2     0.900000E-01   1.00800           0
     19276 MEMB     154      POPE     H12Y     HAL2     0.900000E-01   1.00800           0
     19277 MEMB     154      POPE     C313     CTL2    -0.180000       12.0110           0
     19278 MEMB     154      POPE     H13X     HAL2     0.900000E-01   1.00800           0
     19279 MEMB     154      POPE     H13Y     HAL2     0.900000E-01   1.00800           0
     19280 MEMB     154      POPE     C314     CTL2    -0.180000       12.0110           0
     19281 MEMB     154      POPE     H14X     HAL2     0.900000E-01   1.00800           0
     19282 MEMB     154      POPE     H14Y     HAL2     0.900000E-01   1.00800           0
     19283 MEMB     154      POPE     C315     CTL2    -0.180000       12.0110           0
     19284 MEMB     154      POPE     H15X     HAL2     0.900000E-01   1.00800           0
     19285 MEMB     154      POPE     H15Y     HAL2     0.900000E-01   1.00800           0
     19286 MEMB     154      POPE     C316     CTL3    -0.270000       12.0110           0
     19287 MEMB     154      POPE     H16X     HAL3     0.900000E-01   1.00800           0
     19288 MEMB     154      POPE     H16Y     HAL3     0.900000E-01   1.00800           0
     19289 MEMB     154      POPE     H16Z     HAL3     0.900000E-01   1.00800           0
     19290 MEMB     155      PMPE     N        NH3L    -0.300000       14.0070           0
     19291 MEMB     155      PMPE     HN1      HCL      0.330000       1.00800           0
     19292 MEMB     155      PMPE     HN2      HCL      0.330000       1.00800           0
     19293 MEMB     155      PMPE     HN3      HCL      0.330000       1.00800           0
     19294 MEMB     155      PMPE     C12      CTL2     0.130000       12.0110           0
     19295 MEMB     155      PMPE     H12A     HAL2     0.900000E-01   1.00800           0
     19296 MEMB     155      PMPE     H12B     HAL2     0.900000E-01   1.00800           0
     19297 MEMB     155      PMPE     C11      CTL2    -0.800000E-01   12.0110           0
     19298 MEMB     155      PMPE     H11A     HAL2     0.900000E-01   1.00800           0
     19299 MEMB     155      PMPE     H11B     HAL2     0.900000E-01   1.00800           0
     19300 MEMB     155      PMPE     P        PL        1.50000       30.9740           0
     19301 MEMB     155      PMPE     O13      O2L     -0.780000       15.9994           0
     19302 MEMB     155      PMPE     O14      O2L     -0.780000       15.9994           0
     19303 MEMB     155      PMPE     O11      OSLP    -0.570000       15.9994           0
     19304 MEMB     155      PMPE     O12      OSLP    -0.570000       15.9994           0
     19305 MEMB     155      PMPE     C1       CTL2    -0.800000E-01   12.0110           0
     19306 MEMB     155      PMPE     HA       HAL2     0.900000E-01   1.00800           0
     19307 MEMB     155      PMPE     HB       HAL2     0.900000E-01   1.00800           0
     19308 MEMB     155      PMPE     C2       CTL1     0.170000       12.0110           0
     19309 MEMB     155      PMPE     HS       HAL1     0.900000E-01   1.00800           0
     19310 MEMB     155      PMPE     O21      OSL     -0.490000       15.9994           0
     19311 MEMB     155      PMPE     C21      CL       0.900000       12.0110           0
     19312 MEMB     155      PMPE     O22      OBL     -0.630000       15.9994           0
     19313 MEMB     155      PMPE     C22      CTL2    -0.220000       12.0110           0
     19314 MEMB     155      PMPE     H2R      HAL2     0.900000E-01   1.00800           0
     19315 MEMB     155      PMPE     H2S      HAL2     0.900000E-01   1.00800           0
     19316 MEMB     155      PMPE     C3       CTL2     0.800000E-01   12.0110           0
     19317 MEMB     155      PMPE     HX       HAL2     0.900000E-01   1.00800           0
     19318 MEMB     155      PMPE     HY       HAL2     0.900000E-01   1.00800           0
     19319 MEMB     155      PMPE     O31      OSL     -0.490000       15.9994           0
     19320 MEMB     155      PMPE     C31      CL       0.900000       12.0110           0
     19321 MEMB     155      PMPE     O32      OBL     -0.630000       15.9994           0
     19322 MEMB     155      PMPE     C32      CTL2    -0.220000       12.0110           0
     19323 MEMB     155      PMPE     H2X      HAL2     0.900000E-01   1.00800           0
     19324 MEMB     155      PMPE     H2Y      HAL2     0.900000E-01   1.00800           0
     19325 MEMB     155      PMPE     C23      CTL2    -0.180000       12.0110           0
     19326 MEMB     155      PMPE     H3R      HAL2     0.900000E-01   1.00800           0
     19327 MEMB     155      PMPE     H3S      HAL2     0.900000E-01   1.00800           0
     19328 MEMB     155      PMPE     C24      CTL2    -0.180000       12.0110           0
     19329 MEMB     155      PMPE     H4R      HAL2     0.900000E-01   1.00800           0
     19330 MEMB     155      PMPE     H4S      HAL2     0.900000E-01   1.00800           0
     19331 MEMB     155      PMPE     C25      CTL2    -0.180000       12.0110           0
     19332 MEMB     155      PMPE     H5R      HAL2     0.900000E-01   1.00800           0
     19333 MEMB     155      PMPE     H5S      HAL2     0.900000E-01   1.00800           0
     19334 MEMB     155      PMPE     C26      CTL2    -0.180000       12.0110           0
     19335 MEMB     155      PMPE     H6R      HAL2     0.900000E-01   1.00800           0
     19336 MEMB     155      PMPE     H6S      HAL2     0.900000E-01   1.00800           0
     19337 MEMB     155      PMPE     C27      CTL2    -0.180000       12.0110           0
     19338 MEMB     155      PMPE     H7R      HAL2     0.900000E-01   1.00800           0
     19339 MEMB     155      PMPE     H7S      HAL2     0.900000E-01   1.00800           0
     19340 MEMB     155      PMPE     C28      CTL2    -0.180000       12.0110           0
     19341 MEMB     155      PMPE     H8R      HAL2     0.900000E-01   1.00800           0
     19342 MEMB     155      PMPE     H8S      HAL2     0.900000E-01   1.00800           0
     19343 MEMB     155      PMPE     C29      CG3RC1  -0.900000E-01   12.0110           0
     19344 MEMB     155      PMPE     H9R      HGA1     0.900000E-01   1.00800           0
     19345 MEMB     155      PMPE     C217     CG3C31  -0.180000       12.0110           0
     19346 MEMB     155      PMPE     H17R     HGA2     0.900000E-01   1.00800           0
     19347 MEMB     155      PMPE     H17S     HGA2     0.900000E-01   1.00800           0
     19348 MEMB     155      PMPE     C210     CG3RC1  -0.900000E-01   12.0110           0
     19349 MEMB     155      PMPE     H10R     HGA1     0.900000E-01   1.00800           0
     19350 MEMB     155      PMPE     C211     CTL2    -0.180000       12.0110           0
     19351 MEMB     155      PMPE     H11R     HAL2     0.900000E-01   1.00800           0
     19352 MEMB     155      PMPE     H11S     HAL2     0.900000E-01   1.00800           0
     19353 MEMB     155      PMPE     C212     CTL2    -0.180000       12.0110           0
     19354 MEMB     155      PMPE     H12R     HAL2     0.900000E-01   1.00800           0
     19355 MEMB     155      PMPE     H12S     HAL2     0.900000E-01   1.00800           0
     19356 MEMB     155      PMPE     C213     CTL2    -0.180000       12.0110           0
     19357 MEMB     155      PMPE     H13R     HAL2     0.900000E-01   1.00800           0
     19358 MEMB     155      PMPE     H13S     HAL2     0.900000E-01   1.00800           0
     19359 MEMB     155      PMPE     C214     CTL2    -0.180000       12.0110           0
     19360 MEMB     155      PMPE     H14R     HAL2     0.900000E-01   1.00800           0
     19361 MEMB     155      PMPE     H14S     HAL2     0.900000E-01   1.00800           0
     19362 MEMB     155      PMPE     C215     CTL2    -0.180000       12.0110           0
     19363 MEMB     155      PMPE     H15R     HAL2     0.900000E-01   1.00800           0
     19364 MEMB     155      PMPE     H15S     HAL2     0.900000E-01   1.00800           0
     19365 MEMB     155      PMPE     C216     CTL3    -0.270000       12.0110           0
     19366 MEMB     155      PMPE     H16R     HAL3     0.900000E-01   1.00800           0
     19367 MEMB     155      PMPE     H16S     HAL3     0.900000E-01   1.00800           0
     19368 MEMB     155      PMPE     H16T     HAL3     0.900000E-01   1.00800           0
     19369 MEMB     155      PMPE     C33      CTL2    -0.180000       12.0110           0
     19370 MEMB     155      PMPE     H3X      HAL2     0.900000E-01   1.00800           0
     19371 MEMB     155      PMPE     H3Y      HAL2     0.900000E-01   1.00800           0
     19372 MEMB     155      PMPE     C34      CTL2    -0.180000       12.0110           0
     19373 MEMB     155      PMPE     H4X      HAL2     0.900000E-01   1.00800           0
     19374 MEMB     155      PMPE     H4Y      HAL2     0.900000E-01   1.00800           0
     19375 MEMB     155      PMPE     C35      CTL2    -0.180000       12.0110           0
     19376 MEMB     155      PMPE     H5X      HAL2     0.900000E-01   1.00800           0
     19377 MEMB     155      PMPE     H5Y      HAL2     0.900000E-01   1.00800           0
     19378 MEMB     155      PMPE     C36      CTL2    -0.180000       12.0110           0
     19379 MEMB     155      PMPE     H6X      HAL2     0.900000E-01   1.00800           0
     19380 MEMB     155      PMPE     H6Y      HAL2     0.900000E-01   1.00800           0
     19381 MEMB     155      PMPE     C37      CTL2    -0.180000       12.0110           0
     19382 MEMB     155      PMPE     H7X      HAL2     0.900000E-01   1.00800           0
     19383 MEMB     155      PMPE     H7Y      HAL2     0.900000E-01   1.00800           0
     19384 MEMB     155      PMPE     C38      CTL2    -0.180000       12.0110           0
     19385 MEMB     155      PMPE     H8X      HAL2     0.900000E-01   1.00800           0
     19386 MEMB     155      PMPE     H8Y      HAL2     0.900000E-01   1.00800           0
     19387 MEMB     155      PMPE     C39      CTL2    -0.180000       12.0110           0
     19388 MEMB     155      PMPE     H9X      HAL2     0.900000E-01   1.00800           0
     19389 MEMB     155      PMPE     H9Y      HAL2     0.900000E-01   1.00800           0
     19390 MEMB     155      PMPE     C310     CTL2    -0.180000       12.0110           0
     19391 MEMB     155      PMPE     H10X     HAL2     0.900000E-01   1.00800           0
     19392 MEMB     155      PMPE     H10Y     HAL2     0.900000E-01   1.00800           0
     19393 MEMB     155      PMPE     C311     CTL2    -0.180000       12.0110           0
     19394 MEMB     155      PMPE     H11X     HAL2     0.900000E-01   1.00800           0
     19395 MEMB     155      PMPE     H11Y     HAL2     0.900000E-01   1.00800           0
     19396 MEMB     155      PMPE     C312     CTL2    -0.180000       12.0110           0
     19397 MEMB     155      PMPE     H12X     HAL2     0.900000E-01   1.00800           0
     19398 MEMB     155      PMPE     H12Y     HAL2     0.900000E-01   1.00800           0
     19399 MEMB     155      PMPE     C313     CTL2    -0.180000       12.0110           0
     19400 MEMB     155      PMPE     H13X     HAL2     0.900000E-01   1.00800           0
     19401 MEMB     155      PMPE     H13Y     HAL2     0.900000E-01   1.00800           0
     19402 MEMB     155      PMPE     C314     CTL2    -0.180000       12.0110           0
     19403 MEMB     155      PMPE     H14X     HAL2     0.900000E-01   1.00800           0
     19404 MEMB     155      PMPE     H14Y     HAL2     0.900000E-01   1.00800           0
     19405 MEMB     155      PMPE     C315     CTL2    -0.180000       12.0110           0
     19406 MEMB     155      PMPE     H15X     HAL2     0.900000E-01   1.00800           0
     19407 MEMB     155      PMPE     H15Y     HAL2     0.900000E-01   1.00800           0
     19408 MEMB     155      PMPE     C316     CTL3    -0.270000       12.0110           0
     19409 MEMB     155      PMPE     H16X     HAL3     0.900000E-01   1.00800           0
     19410 MEMB     155      PMPE     H16Y     HAL3     0.900000E-01   1.00800           0
     19411 MEMB     155      PMPE     H16Z     HAL3     0.900000E-01   1.00800           0
     19412 MEMB     156      POPE     N        NH3L    -0.300000       14.0070           0
     19413 MEMB     156      POPE     HN1      HCL      0.330000       1.00800           0
     19414 MEMB     156      POPE     HN2      HCL      0.330000       1.00800           0
     19415 MEMB     156      POPE     HN3      HCL      0.330000       1.00800           0
     19416 MEMB     156      POPE     C12      CTL2     0.130000       12.0110           0
     19417 MEMB     156      POPE     H12A     HAL2     0.900000E-01   1.00800           0
     19418 MEMB     156      POPE     H12B     HAL2     0.900000E-01   1.00800           0
     19419 MEMB     156      POPE     C11      CTL2    -0.800000E-01   12.0110           0
     19420 MEMB     156      POPE     H11A     HAL2     0.900000E-01   1.00800           0
     19421 MEMB     156      POPE     H11B     HAL2     0.900000E-01   1.00800           0
     19422 MEMB     156      POPE     P        PL        1.50000       30.9740           0
     19423 MEMB     156      POPE     O13      O2L     -0.780000       15.9994           0
     19424 MEMB     156      POPE     O14      O2L     -0.780000       15.9994           0
     19425 MEMB     156      POPE     O11      OSLP    -0.570000       15.9994           0
     19426 MEMB     156      POPE     O12      OSLP    -0.570000       15.9994           0
     19427 MEMB     156      POPE     C1       CTL2    -0.800000E-01   12.0110           0
     19428 MEMB     156      POPE     HA       HAL2     0.900000E-01   1.00800           0
     19429 MEMB     156      POPE     HB       HAL2     0.900000E-01   1.00800           0
     19430 MEMB     156      POPE     C2       CTL1     0.170000       12.0110           0
     19431 MEMB     156      POPE     HS       HAL1     0.900000E-01   1.00800           0
     19432 MEMB     156      POPE     O21      OSL     -0.490000       15.9994           0
     19433 MEMB     156      POPE     C21      CL       0.900000       12.0110           0
     19434 MEMB     156      POPE     O22      OBL     -0.630000       15.9994           0
     19435 MEMB     156      POPE     C22      CTL2    -0.220000       12.0110           0
     19436 MEMB     156      POPE     H2R      HAL2     0.900000E-01   1.00800           0
     19437 MEMB     156      POPE     H2S      HAL2     0.900000E-01   1.00800           0
     19438 MEMB     156      POPE     C3       CTL2     0.800000E-01   12.0110           0
     19439 MEMB     156      POPE     HX       HAL2     0.900000E-01   1.00800           0
     19440 MEMB     156      POPE     HY       HAL2     0.900000E-01   1.00800           0
     19441 MEMB     156      POPE     O31      OSL     -0.490000       15.9994           0
     19442 MEMB     156      POPE     C31      CL       0.900000       12.0110           0
     19443 MEMB     156      POPE     O32      OBL     -0.630000       15.9994           0
     19444 MEMB     156      POPE     C32      CTL2    -0.220000       12.0110           0
     19445 MEMB     156      POPE     H2X      HAL2     0.900000E-01   1.00800           0
     19446 MEMB     156      POPE     H2Y      HAL2     0.900000E-01   1.00800           0
     19447 MEMB     156      POPE     C23      CTL2    -0.180000       12.0110           0
     19448 MEMB     156      POPE     H3R      HAL2     0.900000E-01   1.00800           0
     19449 MEMB     156      POPE     H3S      HAL2     0.900000E-01   1.00800           0
     19450 MEMB     156      POPE     C24      CTL2    -0.180000       12.0110           0
     19451 MEMB     156      POPE     H4R      HAL2     0.900000E-01   1.00800           0
     19452 MEMB     156      POPE     H4S      HAL2     0.900000E-01   1.00800           0
     19453 MEMB     156      POPE     C25      CTL2    -0.180000       12.0110           0
     19454 MEMB     156      POPE     H5R      HAL2     0.900000E-01   1.00800           0
     19455 MEMB     156      POPE     H5S      HAL2     0.900000E-01   1.00800           0
     19456 MEMB     156      POPE     C26      CTL2    -0.180000       12.0110           0
     19457 MEMB     156      POPE     H6R      HAL2     0.900000E-01   1.00800           0
     19458 MEMB     156      POPE     H6S      HAL2     0.900000E-01   1.00800           0
     19459 MEMB     156      POPE     C27      CTL2    -0.180000       12.0110           0
     19460 MEMB     156      POPE     H7R      HAL2     0.900000E-01   1.00800           0
     19461 MEMB     156      POPE     H7S      HAL2     0.900000E-01   1.00800           0
     19462 MEMB     156      POPE     C28      CTL2    -0.180000       12.0110           0
     19463 MEMB     156      POPE     H8R      HAL2     0.900000E-01   1.00800           0
     19464 MEMB     156      POPE     H8S      HAL2     0.900000E-01   1.00800           0
     19465 MEMB     156      POPE     C29      CEL1    -0.150000       12.0110           0
     19466 MEMB     156      POPE     H91      HEL1     0.150000       1.00800           0
     19467 MEMB     156      POPE     C210     CEL1    -0.150000       12.0110           0
     19468 MEMB     156      POPE     H101     HEL1     0.150000       1.00800           0
     19469 MEMB     156      POPE     C211     CTL2    -0.180000       12.0110           0
     19470 MEMB     156      POPE     H11R     HAL2     0.900000E-01   1.00800           0
     19471 MEMB     156      POPE     H11S     HAL2     0.900000E-01   1.00800           0
     19472 MEMB     156      POPE     C212     CTL2    -0.180000       12.0110           0
     19473 MEMB     156      POPE     H12R     HAL2     0.900000E-01   1.00800           0
     19474 MEMB     156      POPE     H12S     HAL2     0.900000E-01   1.00800           0
     19475 MEMB     156      POPE     C213     CTL2    -0.180000       12.0110           0
     19476 MEMB     156      POPE     H13R     HAL2     0.900000E-01   1.00800           0
     19477 MEMB     156      POPE     H13S     HAL2     0.900000E-01   1.00800           0
     19478 MEMB     156      POPE     C214     CTL2    -0.180000       12.0110           0
     19479 MEMB     156      POPE     H14R     HAL2     0.900000E-01   1.00800           0
     19480 MEMB     156      POPE     H14S     HAL2     0.900000E-01   1.00800           0
     19481 MEMB     156      POPE     C215     CTL2    -0.180000       12.0110           0
     19482 MEMB     156      POPE     H15R     HAL2     0.900000E-01   1.00800           0
     19483 MEMB     156      POPE     H15S     HAL2     0.900000E-01   1.00800           0
     19484 MEMB     156      POPE     C216     CTL2    -0.180000       12.0110           0
     19485 MEMB     156      POPE     H16R     HAL2     0.900000E-01   1.00800           0
     19486 MEMB     156      POPE     H16S     HAL2     0.900000E-01   1.00800           0
     19487 MEMB     156      POPE     C217     CTL2    -0.180000       12.0110           0
     19488 MEMB     156      POPE     H17R     HAL2     0.900000E-01   1.00800           0
     19489 MEMB     156      POPE     H17S     HAL2     0.900000E-01   1.00800           0
     19490 MEMB     156      POPE     C218     CTL3    -0.270000       12.0110           0
     19491 MEMB     156      POPE     H18R     HAL3     0.900000E-01   1.00800           0
     19492 MEMB     156      POPE     H18S     HAL3     0.900000E-01   1.00800           0
     19493 MEMB     156      POPE     H18T     HAL3     0.900000E-01   1.00800           0
     19494 MEMB     156      POPE     C33      CTL2    -0.180000       12.0110           0
     19495 MEMB     156      POPE     H3X      HAL2     0.900000E-01   1.00800           0
     19496 MEMB     156      POPE     H3Y      HAL2     0.900000E-01   1.00800           0
     19497 MEMB     156      POPE     C34      CTL2    -0.180000       12.0110           0
     19498 MEMB     156      POPE     H4X      HAL2     0.900000E-01   1.00800           0
     19499 MEMB     156      POPE     H4Y      HAL2     0.900000E-01   1.00800           0
     19500 MEMB     156      POPE     C35      CTL2    -0.180000       12.0110           0
     19501 MEMB     156      POPE     H5X      HAL2     0.900000E-01   1.00800           0
     19502 MEMB     156      POPE     H5Y      HAL2     0.900000E-01   1.00800           0
     19503 MEMB     156      POPE     C36      CTL2    -0.180000       12.0110           0
     19504 MEMB     156      POPE     H6X      HAL2     0.900000E-01   1.00800           0
     19505 MEMB     156      POPE     H6Y      HAL2     0.900000E-01   1.00800           0
     19506 MEMB     156      POPE     C37      CTL2    -0.180000       12.0110           0
     19507 MEMB     156      POPE     H7X      HAL2     0.900000E-01   1.00800           0
     19508 MEMB     156      POPE     H7Y      HAL2     0.900000E-01   1.00800           0
     19509 MEMB     156      POPE     C38      CTL2    -0.180000       12.0110           0
     19510 MEMB     156      POPE     H8X      HAL2     0.900000E-01   1.00800           0
     19511 MEMB     156      POPE     H8Y      HAL2     0.900000E-01   1.00800           0
     19512 MEMB     156      POPE     C39      CTL2    -0.180000       12.0110           0
     19513 MEMB     156      POPE     H9X      HAL2     0.900000E-01   1.00800           0
     19514 MEMB     156      POPE     H9Y      HAL2     0.900000E-01   1.00800           0
     19515 MEMB     156      POPE     C310     CTL2    -0.180000       12.0110           0
     19516 MEMB     156      POPE     H10X     HAL2     0.900000E-01   1.00800           0
     19517 MEMB     156      POPE     H10Y     HAL2     0.900000E-01   1.00800           0
     19518 MEMB     156      POPE     C311     CTL2    -0.180000       12.0110           0
     19519 MEMB     156      POPE     H11X     HAL2     0.900000E-01   1.00800           0
     19520 MEMB     156      POPE     H11Y     HAL2     0.900000E-01   1.00800           0
     19521 MEMB     156      POPE     C312     CTL2    -0.180000       12.0110           0
     19522 MEMB     156      POPE     H12X     HAL2     0.900000E-01   1.00800           0
     19523 MEMB     156      POPE     H12Y     HAL2     0.900000E-01   1.00800           0
     19524 MEMB     156      POPE     C313     CTL2    -0.180000       12.0110           0
     19525 MEMB     156      POPE     H13X     HAL2     0.900000E-01   1.00800           0
     19526 MEMB     156      POPE     H13Y     HAL2     0.900000E-01   1.00800           0
     19527 MEMB     156      POPE     C314     CTL2    -0.180000       12.0110           0
     19528 MEMB     156      POPE     H14X     HAL2     0.900000E-01   1.00800           0
     19529 MEMB     156      POPE     H14Y     HAL2     0.900000E-01   1.00800           0
     19530 MEMB     156      POPE     C315     CTL2    -0.180000       12.0110           0
     19531 MEMB     156      POPE     H15X     HAL2     0.900000E-01   1.00800           0
     19532 MEMB     156      POPE     H15Y     HAL2     0.900000E-01   1.00800           0
     19533 MEMB     156      POPE     C316     CTL3    -0.270000       12.0110           0
     19534 MEMB     156      POPE     H16X     HAL3     0.900000E-01   1.00800           0
     19535 MEMB     156      POPE     H16Y     HAL3     0.900000E-01   1.00800           0
     19536 MEMB     156      POPE     H16Z     HAL3     0.900000E-01   1.00800           0
     19537 MEMB     157      PMPE     N        NH3L    -0.300000       14.0070           0
     19538 MEMB     157      PMPE     HN1      HCL      0.330000       1.00800           0
     19539 MEMB     157      PMPE     HN2      HCL      0.330000       1.00800           0
     19540 MEMB     157      PMPE     HN3      HCL      0.330000       1.00800           0
     19541 MEMB     157      PMPE     C12      CTL2     0.130000       12.0110           0
     19542 MEMB     157      PMPE     H12A     HAL2     0.900000E-01   1.00800           0
     19543 MEMB     157      PMPE     H12B     HAL2     0.900000E-01   1.00800           0
     19544 MEMB     157      PMPE     C11      CTL2    -0.800000E-01   12.0110           0
     19545 MEMB     157      PMPE     H11A     HAL2     0.900000E-01   1.00800           0
     19546 MEMB     157      PMPE     H11B     HAL2     0.900000E-01   1.00800           0
     19547 MEMB     157      PMPE     P        PL        1.50000       30.9740           0
     19548 MEMB     157      PMPE     O13      O2L     -0.780000       15.9994           0
     19549 MEMB     157      PMPE     O14      O2L     -0.780000       15.9994           0
     19550 MEMB     157      PMPE     O11      OSLP    -0.570000       15.9994           0
     19551 MEMB     157      PMPE     O12      OSLP    -0.570000       15.9994           0
     19552 MEMB     157      PMPE     C1       CTL2    -0.800000E-01   12.0110           0
     19553 MEMB     157      PMPE     HA       HAL2     0.900000E-01   1.00800           0
     19554 MEMB     157      PMPE     HB       HAL2     0.900000E-01   1.00800           0
     19555 MEMB     157      PMPE     C2       CTL1     0.170000       12.0110           0
     19556 MEMB     157      PMPE     HS       HAL1     0.900000E-01   1.00800           0
     19557 MEMB     157      PMPE     O21      OSL     -0.490000       15.9994           0
     19558 MEMB     157      PMPE     C21      CL       0.900000       12.0110           0
     19559 MEMB     157      PMPE     O22      OBL     -0.630000       15.9994           0
     19560 MEMB     157      PMPE     C22      CTL2    -0.220000       12.0110           0
     19561 MEMB     157      PMPE     H2R      HAL2     0.900000E-01   1.00800           0
     19562 MEMB     157      PMPE     H2S      HAL2     0.900000E-01   1.00800           0
     19563 MEMB     157      PMPE     C3       CTL2     0.800000E-01   12.0110           0
     19564 MEMB     157      PMPE     HX       HAL2     0.900000E-01   1.00800           0
     19565 MEMB     157      PMPE     HY       HAL2     0.900000E-01   1.00800           0
     19566 MEMB     157      PMPE     O31      OSL     -0.490000       15.9994           0
     19567 MEMB     157      PMPE     C31      CL       0.900000       12.0110           0
     19568 MEMB     157      PMPE     O32      OBL     -0.630000       15.9994           0
     19569 MEMB     157      PMPE     C32      CTL2    -0.220000       12.0110           0
     19570 MEMB     157      PMPE     H2X      HAL2     0.900000E-01   1.00800           0
     19571 MEMB     157      PMPE     H2Y      HAL2     0.900000E-01   1.00800           0
     19572 MEMB     157      PMPE     C23      CTL2    -0.180000       12.0110           0
     19573 MEMB     157      PMPE     H3R      HAL2     0.900000E-01   1.00800           0
     19574 MEMB     157      PMPE     H3S      HAL2     0.900000E-01   1.00800           0
     19575 MEMB     157      PMPE     C24      CTL2    -0.180000       12.0110           0
     19576 MEMB     157      PMPE     H4R      HAL2     0.900000E-01   1.00800           0
     19577 MEMB     157      PMPE     H4S      HAL2     0.900000E-01   1.00800           0
     19578 MEMB     157      PMPE     C25      CTL2    -0.180000       12.0110           0
     19579 MEMB     157      PMPE     H5R      HAL2     0.900000E-01   1.00800           0
     19580 MEMB     157      PMPE     H5S      HAL2     0.900000E-01   1.00800           0
     19581 MEMB     157      PMPE     C26      CTL2    -0.180000       12.0110           0
     19582 MEMB     157      PMPE     H6R      HAL2     0.900000E-01   1.00800           0
     19583 MEMB     157      PMPE     H6S      HAL2     0.900000E-01   1.00800           0
     19584 MEMB     157      PMPE     C27      CTL2    -0.180000       12.0110           0
     19585 MEMB     157      PMPE     H7R      HAL2     0.900000E-01   1.00800           0
     19586 MEMB     157      PMPE     H7S      HAL2     0.900000E-01   1.00800           0
     19587 MEMB     157      PMPE     C28      CTL2    -0.180000       12.0110           0
     19588 MEMB     157      PMPE     H8R      HAL2     0.900000E-01   1.00800           0
     19589 MEMB     157      PMPE     H8S      HAL2     0.900000E-01   1.00800           0
     19590 MEMB     157      PMPE     C29      CG3RC1  -0.900000E-01   12.0110           0
     19591 MEMB     157      PMPE     H9R      HGA1     0.900000E-01   1.00800           0
     19592 MEMB     157      PMPE     C217     CG3C31  -0.180000       12.0110           0
     19593 MEMB     157      PMPE     H17R     HGA2     0.900000E-01   1.00800           0
     19594 MEMB     157      PMPE     H17S     HGA2     0.900000E-01   1.00800           0
     19595 MEMB     157      PMPE     C210     CG3RC1  -0.900000E-01   12.0110           0
     19596 MEMB     157      PMPE     H10R     HGA1     0.900000E-01   1.00800           0
     19597 MEMB     157      PMPE     C211     CTL2    -0.180000       12.0110           0
     19598 MEMB     157      PMPE     H11R     HAL2     0.900000E-01   1.00800           0
     19599 MEMB     157      PMPE     H11S     HAL2     0.900000E-01   1.00800           0
     19600 MEMB     157      PMPE     C212     CTL2    -0.180000       12.0110           0
     19601 MEMB     157      PMPE     H12R     HAL2     0.900000E-01   1.00800           0
     19602 MEMB     157      PMPE     H12S     HAL2     0.900000E-01   1.00800           0
     19603 MEMB     157      PMPE     C213     CTL2    -0.180000       12.0110           0
     19604 MEMB     157      PMPE     H13R     HAL2     0.900000E-01   1.00800           0
     19605 MEMB     157      PMPE     H13S     HAL2     0.900000E-01   1.00800           0
     19606 MEMB     157      PMPE     C214     CTL2    -0.180000       12.0110           0
     19607 MEMB     157      PMPE     H14R     HAL2     0.900000E-01   1.00800           0
     19608 MEMB     157      PMPE     H14S     HAL2     0.900000E-01   1.00800           0
     19609 MEMB     157      PMPE     C215     CTL2    -0.180000       12.0110           0
     19610 MEMB     157      PMPE     H15R     HAL2     0.900000E-01   1.00800           0
     19611 MEMB     157      PMPE     H15S     HAL2     0.900000E-01   1.00800           0
     19612 MEMB     157      PMPE     C216     CTL3    -0.270000       12.0110           0
     19613 MEMB     157      PMPE     H16R     HAL3     0.900000E-01   1.00800           0
     19614 MEMB     157      PMPE     H16S     HAL3     0.900000E-01   1.00800           0
     19615 MEMB     157      PMPE     H16T     HAL3     0.900000E-01   1.00800           0
     19616 MEMB     157      PMPE     C33      CTL2    -0.180000       12.0110           0
     19617 MEMB     157      PMPE     H3X      HAL2     0.900000E-01   1.00800           0
     19618 MEMB     157      PMPE     H3Y      HAL2     0.900000E-01   1.00800           0
     19619 MEMB     157      PMPE     C34      CTL2    -0.180000       12.0110           0
     19620 MEMB     157      PMPE     H4X      HAL2     0.900000E-01   1.00800           0
     19621 MEMB     157      PMPE     H4Y      HAL2     0.900000E-01   1.00800           0
     19622 MEMB     157      PMPE     C35      CTL2    -0.180000       12.0110           0
     19623 MEMB     157      PMPE     H5X      HAL2     0.900000E-01   1.00800           0
     19624 MEMB     157      PMPE     H5Y      HAL2     0.900000E-01   1.00800           0
     19625 MEMB     157      PMPE     C36      CTL2    -0.180000       12.0110           0
     19626 MEMB     157      PMPE     H6X      HAL2     0.900000E-01   1.00800           0
     19627 MEMB     157      PMPE     H6Y      HAL2     0.900000E-01   1.00800           0
     19628 MEMB     157      PMPE     C37      CTL2    -0.180000       12.0110           0
     19629 MEMB     157      PMPE     H7X      HAL2     0.900000E-01   1.00800           0
     19630 MEMB     157      PMPE     H7Y      HAL2     0.900000E-01   1.00800           0
     19631 MEMB     157      PMPE     C38      CTL2    -0.180000       12.0110           0
     19632 MEMB     157      PMPE     H8X      HAL2     0.900000E-01   1.00800           0
     19633 MEMB     157      PMPE     H8Y      HAL2     0.900000E-01   1.00800           0
     19634 MEMB     157      PMPE     C39      CTL2    -0.180000       12.0110           0
     19635 MEMB     157      PMPE     H9X      HAL2     0.900000E-01   1.00800           0
     19636 MEMB     157      PMPE     H9Y      HAL2     0.900000E-01   1.00800           0
     19637 MEMB     157      PMPE     C310     CTL2    -0.180000       12.0110           0
     19638 MEMB     157      PMPE     H10X     HAL2     0.900000E-01   1.00800           0
     19639 MEMB     157      PMPE     H10Y     HAL2     0.900000E-01   1.00800           0
     19640 MEMB     157      PMPE     C311     CTL2    -0.180000       12.0110           0
     19641 MEMB     157      PMPE     H11X     HAL2     0.900000E-01   1.00800           0
     19642 MEMB     157      PMPE     H11Y     HAL2     0.900000E-01   1.00800           0
     19643 MEMB     157      PMPE     C312     CTL2    -0.180000       12.0110           0
     19644 MEMB     157      PMPE     H12X     HAL2     0.900000E-01   1.00800           0
     19645 MEMB     157      PMPE     H12Y     HAL2     0.900000E-01   1.00800           0
     19646 MEMB     157      PMPE     C313     CTL2    -0.180000       12.0110           0
     19647 MEMB     157      PMPE     H13X     HAL2     0.900000E-01   1.00800           0
     19648 MEMB     157      PMPE     H13Y     HAL2     0.900000E-01   1.00800           0
     19649 MEMB     157      PMPE     C314     CTL2    -0.180000       12.0110           0
     19650 MEMB     157      PMPE     H14X     HAL2     0.900000E-01   1.00800           0
     19651 MEMB     157      PMPE     H14Y     HAL2     0.900000E-01   1.00800           0
     19652 MEMB     157      PMPE     C315     CTL2    -0.180000       12.0110           0
     19653 MEMB     157      PMPE     H15X     HAL2     0.900000E-01   1.00800           0
     19654 MEMB     157      PMPE     H15Y     HAL2     0.900000E-01   1.00800           0
     19655 MEMB     157      PMPE     C316     CTL3    -0.270000       12.0110           0
     19656 MEMB     157      PMPE     H16X     HAL3     0.900000E-01   1.00800           0
     19657 MEMB     157      PMPE     H16Y     HAL3     0.900000E-01   1.00800           0
     19658 MEMB     157      PMPE     H16Z     HAL3     0.900000E-01   1.00800           0
     19659 MEMB     158      QMPE     N        NH3L    -0.300000       14.0070           0
     19660 MEMB     158      QMPE     HN1      HCL      0.330000       1.00800           0
     19661 MEMB     158      QMPE     HN2      HCL      0.330000       1.00800           0
     19662 MEMB     158      QMPE     HN3      HCL      0.330000       1.00800           0
     19663 MEMB     158      QMPE     C12      CTL2     0.130000       12.0110           0
     19664 MEMB     158      QMPE     H12A     HAL2     0.900000E-01   1.00800           0
     19665 MEMB     158      QMPE     H12B     HAL2     0.900000E-01   1.00800           0
     19666 MEMB     158      QMPE     C11      CTL2    -0.800000E-01   12.0110           0
     19667 MEMB     158      QMPE     H11A     HAL2     0.900000E-01   1.00800           0
     19668 MEMB     158      QMPE     H11B     HAL2     0.900000E-01   1.00800           0
     19669 MEMB     158      QMPE     P        PL        1.50000       30.9740           0
     19670 MEMB     158      QMPE     O13      O2L     -0.780000       15.9994           0
     19671 MEMB     158      QMPE     O14      O2L     -0.780000       15.9994           0
     19672 MEMB     158      QMPE     O11      OSLP    -0.570000       15.9994           0
     19673 MEMB     158      QMPE     O12      OSLP    -0.570000       15.9994           0
     19674 MEMB     158      QMPE     C1       CTL2    -0.800000E-01   12.0110           0
     19675 MEMB     158      QMPE     HA       HAL2     0.900000E-01   1.00800           0
     19676 MEMB     158      QMPE     HB       HAL2     0.900000E-01   1.00800           0
     19677 MEMB     158      QMPE     C2       CTL1     0.170000       12.0110           0
     19678 MEMB     158      QMPE     HS       HAL1     0.900000E-01   1.00800           0
     19679 MEMB     158      QMPE     O21      OSL     -0.490000       15.9994           0
     19680 MEMB     158      QMPE     C21      CL       0.900000       12.0110           0
     19681 MEMB     158      QMPE     O22      OBL     -0.630000       15.9994           0
     19682 MEMB     158      QMPE     C22      CTL2    -0.220000       12.0110           0
     19683 MEMB     158      QMPE     H2R      HAL2     0.900000E-01   1.00800           0
     19684 MEMB     158      QMPE     H2S      HAL2     0.900000E-01   1.00800           0
     19685 MEMB     158      QMPE     C3       CTL2     0.800000E-01   12.0110           0
     19686 MEMB     158      QMPE     HX       HAL2     0.900000E-01   1.00800           0
     19687 MEMB     158      QMPE     HY       HAL2     0.900000E-01   1.00800           0
     19688 MEMB     158      QMPE     O31      OSL     -0.490000       15.9994           0
     19689 MEMB     158      QMPE     C31      CL       0.900000       12.0110           0
     19690 MEMB     158      QMPE     O32      OBL     -0.630000       15.9994           0
     19691 MEMB     158      QMPE     C32      CTL2    -0.220000       12.0110           0
     19692 MEMB     158      QMPE     H2X      HAL2     0.900000E-01   1.00800           0
     19693 MEMB     158      QMPE     H2Y      HAL2     0.900000E-01   1.00800           0
     19694 MEMB     158      QMPE     C23      CTL2    -0.180000       12.0110           0
     19695 MEMB     158      QMPE     H3R      HAL2     0.900000E-01   1.00800           0
     19696 MEMB     158      QMPE     H3S      HAL2     0.900000E-01   1.00800           0
     19697 MEMB     158      QMPE     C24      CTL2    -0.180000       12.0110           0
     19698 MEMB     158      QMPE     H4R      HAL2     0.900000E-01   1.00800           0
     19699 MEMB     158      QMPE     H4S      HAL2     0.900000E-01   1.00800           0
     19700 MEMB     158      QMPE     C25      CTL2    -0.180000       12.0110           0
     19701 MEMB     158      QMPE     H5R      HAL2     0.900000E-01   1.00800           0
     19702 MEMB     158      QMPE     H5S      HAL2     0.900000E-01   1.00800           0
     19703 MEMB     158      QMPE     C26      CTL2    -0.180000       12.0110           0
     19704 MEMB     158      QMPE     H6R      HAL2     0.900000E-01   1.00800           0
     19705 MEMB     158      QMPE     H6S      HAL2     0.900000E-01   1.00800           0
     19706 MEMB     158      QMPE     C27      CTL2    -0.180000       12.0110           0
     19707 MEMB     158      QMPE     H7R      HAL2     0.900000E-01   1.00800           0
     19708 MEMB     158      QMPE     H7S      HAL2     0.900000E-01   1.00800           0
     19709 MEMB     158      QMPE     C28      CTL2    -0.180000       12.0110           0
     19710 MEMB     158      QMPE     H8R      HAL2     0.900000E-01   1.00800           0
     19711 MEMB     158      QMPE     H8S      HAL2     0.900000E-01   1.00800           0
     19712 MEMB     158      QMPE     C29      CG3RC1  -0.900000E-01   12.0110           0
     19713 MEMB     158      QMPE     H9R      HGA1     0.900000E-01   1.00800           0
     19714 MEMB     158      QMPE     C217     CG3C31  -0.180000       12.0110           0
     19715 MEMB     158      QMPE     H17R     HGA2     0.900000E-01   1.00800           0
     19716 MEMB     158      QMPE     H17S     HGA2     0.900000E-01   1.00800           0
     19717 MEMB     158      QMPE     C210     CG3RC1  -0.900000E-01   12.0110           0
     19718 MEMB     158      QMPE     H10R     HGA1     0.900000E-01   1.00800           0
     19719 MEMB     158      QMPE     C211     CTL2    -0.180000       12.0110           0
     19720 MEMB     158      QMPE     H11R     HAL2     0.900000E-01   1.00800           0
     19721 MEMB     158      QMPE     H11S     HAL2     0.900000E-01   1.00800           0
     19722 MEMB     158      QMPE     C212     CTL2    -0.180000       12.0110           0
     19723 MEMB     158      QMPE     H12R     HAL2     0.900000E-01   1.00800           0
     19724 MEMB     158      QMPE     H12S     HAL2     0.900000E-01   1.00800           0
     19725 MEMB     158      QMPE     C213     CTL2    -0.180000       12.0110           0
     19726 MEMB     158      QMPE     H13R     HAL2     0.900000E-01   1.00800           0
     19727 MEMB     158      QMPE     H13S     HAL2     0.900000E-01   1.00800           0
     19728 MEMB     158      QMPE     C214     CTL2    -0.180000       12.0110           0
     19729 MEMB     158      QMPE     H14R     HAL2     0.900000E-01   1.00800           0
     19730 MEMB     158      QMPE     H14S     HAL2     0.900000E-01   1.00800           0
     19731 MEMB     158      QMPE     C215     CTL2    -0.180000       12.0110           0
     19732 MEMB     158      QMPE     H15R     HAL2     0.900000E-01   1.00800           0
     19733 MEMB     158      QMPE     H15S     HAL2     0.900000E-01   1.00800           0
     19734 MEMB     158      QMPE     C216     CTL3    -0.270000       12.0110           0
     19735 MEMB     158      QMPE     H16R     HAL3     0.900000E-01   1.00800           0
     19736 MEMB     158      QMPE     H16S     HAL3     0.900000E-01   1.00800           0
     19737 MEMB     158      QMPE     H16T     HAL3     0.900000E-01   1.00800           0
     19738 MEMB     158      QMPE     C33      CTL2    -0.180000       12.0110           0
     19739 MEMB     158      QMPE     H3X      HAL2     0.900000E-01   1.00800           0
     19740 MEMB     158      QMPE     H3Y      HAL2     0.900000E-01   1.00800           0
     19741 MEMB     158      QMPE     C34      CTL2    -0.180000       12.0110           0
     19742 MEMB     158      QMPE     H4X      HAL2     0.900000E-01   1.00800           0
     19743 MEMB     158      QMPE     H4Y      HAL2     0.900000E-01   1.00800           0
     19744 MEMB     158      QMPE     C35      CTL2    -0.180000       12.0110           0
     19745 MEMB     158      QMPE     H5X      HAL2     0.900000E-01   1.00800           0
     19746 MEMB     158      QMPE     H5Y      HAL2     0.900000E-01   1.00800           0
     19747 MEMB     158      QMPE     C36      CTL2    -0.180000       12.0110           0
     19748 MEMB     158      QMPE     H6X      HAL2     0.900000E-01   1.00800           0
     19749 MEMB     158      QMPE     H6Y      HAL2     0.900000E-01   1.00800           0
     19750 MEMB     158      QMPE     C37      CTL2    -0.180000       12.0110           0
     19751 MEMB     158      QMPE     H7X      HAL2     0.900000E-01   1.00800           0
     19752 MEMB     158      QMPE     H7Y      HAL2     0.900000E-01   1.00800           0
     19753 MEMB     158      QMPE     C38      CTL2    -0.180000       12.0110           0
     19754 MEMB     158      QMPE     H8X      HAL2     0.900000E-01   1.00800           0
     19755 MEMB     158      QMPE     H8Y      HAL2     0.900000E-01   1.00800           0
     19756 MEMB     158      QMPE     C39      CTL2    -0.180000       12.0110           0
     19757 MEMB     158      QMPE     H9X      HAL2     0.900000E-01   1.00800           0
     19758 MEMB     158      QMPE     H9Y      HAL2     0.900000E-01   1.00800           0
     19759 MEMB     158      QMPE     C310     CTL2    -0.180000       12.0110           0
     19760 MEMB     158      QMPE     H10X     HAL2     0.900000E-01   1.00800           0
     19761 MEMB     158      QMPE     H10Y     HAL2     0.900000E-01   1.00800           0
     19762 MEMB     158      QMPE     C311     CTL2    -0.180000       12.0110           0
     19763 MEMB     158      QMPE     H11X     HAL2     0.900000E-01   1.00800           0
     19764 MEMB     158      QMPE     H11Y     HAL2     0.900000E-01   1.00800           0
     19765 MEMB     158      QMPE     C312     CTL2    -0.180000       12.0110           0
     19766 MEMB     158      QMPE     H12X     HAL2     0.900000E-01   1.00800           0
     19767 MEMB     158      QMPE     H12Y     HAL2     0.900000E-01   1.00800           0
     19768 MEMB     158      QMPE     C313     CTL2    -0.180000       12.0110           0
     19769 MEMB     158      QMPE     H13X     HAL2     0.900000E-01   1.00800           0
     19770 MEMB     158      QMPE     H13Y     HAL2     0.900000E-01   1.00800           0
     19771 MEMB     158      QMPE     C314     CTL2    -0.180000       12.0110           0
     19772 MEMB     158      QMPE     H14X     HAL2     0.900000E-01   1.00800           0
     19773 MEMB     158      QMPE     H14Y     HAL2     0.900000E-01   1.00800           0
     19774 MEMB     158      QMPE     C315     CTL3    -0.270000       12.0110           0
     19775 MEMB     158      QMPE     H15X     HAL3     0.900000E-01   1.00800           0
     19776 MEMB     158      QMPE     H15Y     HAL3     0.900000E-01   1.00800           0
     19777 MEMB     158      QMPE     H15Z     HAL3     0.900000E-01   1.00800           0
     19778 MEMB     159      PMPE     N        NH3L    -0.300000       14.0070           0
     19779 MEMB     159      PMPE     HN1      HCL      0.330000       1.00800           0
     19780 MEMB     159      PMPE     HN2      HCL      0.330000       1.00800           0
     19781 MEMB     159      PMPE     HN3      HCL      0.330000       1.00800           0
     19782 MEMB     159      PMPE     C12      CTL2     0.130000       12.0110           0
     19783 MEMB     159      PMPE     H12A     HAL2     0.900000E-01   1.00800           0
     19784 MEMB     159      PMPE     H12B     HAL2     0.900000E-01   1.00800           0
     19785 MEMB     159      PMPE     C11      CTL2    -0.800000E-01   12.0110           0
     19786 MEMB     159      PMPE     H11A     HAL2     0.900000E-01   1.00800           0
     19787 MEMB     159      PMPE     H11B     HAL2     0.900000E-01   1.00800           0
     19788 MEMB     159      PMPE     P        PL        1.50000       30.9740           0
     19789 MEMB     159      PMPE     O13      O2L     -0.780000       15.9994           0
     19790 MEMB     159      PMPE     O14      O2L     -0.780000       15.9994           0
     19791 MEMB     159      PMPE     O11      OSLP    -0.570000       15.9994           0
     19792 MEMB     159      PMPE     O12      OSLP    -0.570000       15.9994           0
     19793 MEMB     159      PMPE     C1       CTL2    -0.800000E-01   12.0110           0
     19794 MEMB     159      PMPE     HA       HAL2     0.900000E-01   1.00800           0
     19795 MEMB     159      PMPE     HB       HAL2     0.900000E-01   1.00800           0
     19796 MEMB     159      PMPE     C2       CTL1     0.170000       12.0110           0
     19797 MEMB     159      PMPE     HS       HAL1     0.900000E-01   1.00800           0
     19798 MEMB     159      PMPE     O21      OSL     -0.490000       15.9994           0
     19799 MEMB     159      PMPE     C21      CL       0.900000       12.0110           0
     19800 MEMB     159      PMPE     O22      OBL     -0.630000       15.9994           0
     19801 MEMB     159      PMPE     C22      CTL2    -0.220000       12.0110           0
     19802 MEMB     159      PMPE     H2R      HAL2     0.900000E-01   1.00800           0
     19803 MEMB     159      PMPE     H2S      HAL2     0.900000E-01   1.00800           0
     19804 MEMB     159      PMPE     C3       CTL2     0.800000E-01   12.0110           0
     19805 MEMB     159      PMPE     HX       HAL2     0.900000E-01   1.00800           0
     19806 MEMB     159      PMPE     HY       HAL2     0.900000E-01   1.00800           0
     19807 MEMB     159      PMPE     O31      OSL     -0.490000       15.9994           0
     19808 MEMB     159      PMPE     C31      CL       0.900000       12.0110           0
     19809 MEMB     159      PMPE     O32      OBL     -0.630000       15.9994           0
     19810 MEMB     159      PMPE     C32      CTL2    -0.220000       12.0110           0
     19811 MEMB     159      PMPE     H2X      HAL2     0.900000E-01   1.00800           0
     19812 MEMB     159      PMPE     H2Y      HAL2     0.900000E-01   1.00800           0
     19813 MEMB     159      PMPE     C23      CTL2    -0.180000       12.0110           0
     19814 MEMB     159      PMPE     H3R      HAL2     0.900000E-01   1.00800           0
     19815 MEMB     159      PMPE     H3S      HAL2     0.900000E-01   1.00800           0
     19816 MEMB     159      PMPE     C24      CTL2    -0.180000       12.0110           0
     19817 MEMB     159      PMPE     H4R      HAL2     0.900000E-01   1.00800           0
     19818 MEMB     159      PMPE     H4S      HAL2     0.900000E-01   1.00800           0
     19819 MEMB     159      PMPE     C25      CTL2    -0.180000       12.0110           0
     19820 MEMB     159      PMPE     H5R      HAL2     0.900000E-01   1.00800           0
     19821 MEMB     159      PMPE     H5S      HAL2     0.900000E-01   1.00800           0
     19822 MEMB     159      PMPE     C26      CTL2    -0.180000       12.0110           0
     19823 MEMB     159      PMPE     H6R      HAL2     0.900000E-01   1.00800           0
     19824 MEMB     159      PMPE     H6S      HAL2     0.900000E-01   1.00800           0
     19825 MEMB     159      PMPE     C27      CTL2    -0.180000       12.0110           0
     19826 MEMB     159      PMPE     H7R      HAL2     0.900000E-01   1.00800           0
     19827 MEMB     159      PMPE     H7S      HAL2     0.900000E-01   1.00800           0
     19828 MEMB     159      PMPE     C28      CTL2    -0.180000       12.0110           0
     19829 MEMB     159      PMPE     H8R      HAL2     0.900000E-01   1.00800           0
     19830 MEMB     159      PMPE     H8S      HAL2     0.900000E-01   1.00800           0
     19831 MEMB     159      PMPE     C29      CG3RC1  -0.900000E-01   12.0110           0
     19832 MEMB     159      PMPE     H9R      HGA1     0.900000E-01   1.00800           0
     19833 MEMB     159      PMPE     C217     CG3C31  -0.180000       12.0110           0
     19834 MEMB     159      PMPE     H17R     HGA2     0.900000E-01   1.00800           0
     19835 MEMB     159      PMPE     H17S     HGA2     0.900000E-01   1.00800           0
     19836 MEMB     159      PMPE     C210     CG3RC1  -0.900000E-01   12.0110           0
     19837 MEMB     159      PMPE     H10R     HGA1     0.900000E-01   1.00800           0
     19838 MEMB     159      PMPE     C211     CTL2    -0.180000       12.0110           0
     19839 MEMB     159      PMPE     H11R     HAL2     0.900000E-01   1.00800           0
     19840 MEMB     159      PMPE     H11S     HAL2     0.900000E-01   1.00800           0
     19841 MEMB     159      PMPE     C212     CTL2    -0.180000       12.0110           0
     19842 MEMB     159      PMPE     H12R     HAL2     0.900000E-01   1.00800           0
     19843 MEMB     159      PMPE     H12S     HAL2     0.900000E-01   1.00800           0
     19844 MEMB     159      PMPE     C213     CTL2    -0.180000       12.0110           0
     19845 MEMB     159      PMPE     H13R     HAL2     0.900000E-01   1.00800           0
     19846 MEMB     159      PMPE     H13S     HAL2     0.900000E-01   1.00800           0
     19847 MEMB     159      PMPE     C214     CTL2    -0.180000       12.0110           0
     19848 MEMB     159      PMPE     H14R     HAL2     0.900000E-01   1.00800           0
     19849 MEMB     159      PMPE     H14S     HAL2     0.900000E-01   1.00800           0
     19850 MEMB     159      PMPE     C215     CTL2    -0.180000       12.0110           0
     19851 MEMB     159      PMPE     H15R     HAL2     0.900000E-01   1.00800           0
     19852 MEMB     159      PMPE     H15S     HAL2     0.900000E-01   1.00800           0
     19853 MEMB     159      PMPE     C216     CTL3    -0.270000       12.0110           0
     19854 MEMB     159      PMPE     H16R     HAL3     0.900000E-01   1.00800           0
     19855 MEMB     159      PMPE     H16S     HAL3     0.900000E-01   1.00800           0
     19856 MEMB     159      PMPE     H16T     HAL3     0.900000E-01   1.00800           0
     19857 MEMB     159      PMPE     C33      CTL2    -0.180000       12.0110           0
     19858 MEMB     159      PMPE     H3X      HAL2     0.900000E-01   1.00800           0
     19859 MEMB     159      PMPE     H3Y      HAL2     0.900000E-01   1.00800           0
     19860 MEMB     159      PMPE     C34      CTL2    -0.180000       12.0110           0
     19861 MEMB     159      PMPE     H4X      HAL2     0.900000E-01   1.00800           0
     19862 MEMB     159      PMPE     H4Y      HAL2     0.900000E-01   1.00800           0
     19863 MEMB     159      PMPE     C35      CTL2    -0.180000       12.0110           0
     19864 MEMB     159      PMPE     H5X      HAL2     0.900000E-01   1.00800           0
     19865 MEMB     159      PMPE     H5Y      HAL2     0.900000E-01   1.00800           0
     19866 MEMB     159      PMPE     C36      CTL2    -0.180000       12.0110           0
     19867 MEMB     159      PMPE     H6X      HAL2     0.900000E-01   1.00800           0
     19868 MEMB     159      PMPE     H6Y      HAL2     0.900000E-01   1.00800           0
     19869 MEMB     159      PMPE     C37      CTL2    -0.180000       12.0110           0
     19870 MEMB     159      PMPE     H7X      HAL2     0.900000E-01   1.00800           0
     19871 MEMB     159      PMPE     H7Y      HAL2     0.900000E-01   1.00800           0
     19872 MEMB     159      PMPE     C38      CTL2    -0.180000       12.0110           0
     19873 MEMB     159      PMPE     H8X      HAL2     0.900000E-01   1.00800           0
     19874 MEMB     159      PMPE     H8Y      HAL2     0.900000E-01   1.00800           0
     19875 MEMB     159      PMPE     C39      CTL2    -0.180000       12.0110           0
     19876 MEMB     159      PMPE     H9X      HAL2     0.900000E-01   1.00800           0
     19877 MEMB     159      PMPE     H9Y      HAL2     0.900000E-01   1.00800           0
     19878 MEMB     159      PMPE     C310     CTL2    -0.180000       12.0110           0
     19879 MEMB     159      PMPE     H10X     HAL2     0.900000E-01   1.00800           0
     19880 MEMB     159      PMPE     H10Y     HAL2     0.900000E-01   1.00800           0
     19881 MEMB     159      PMPE     C311     CTL2    -0.180000       12.0110           0
     19882 MEMB     159      PMPE     H11X     HAL2     0.900000E-01   1.00800           0
     19883 MEMB     159      PMPE     H11Y     HAL2     0.900000E-01   1.00800           0
     19884 MEMB     159      PMPE     C312     CTL2    -0.180000       12.0110           0
     19885 MEMB     159      PMPE     H12X     HAL2     0.900000E-01   1.00800           0
     19886 MEMB     159      PMPE     H12Y     HAL2     0.900000E-01   1.00800           0
     19887 MEMB     159      PMPE     C313     CTL2    -0.180000       12.0110           0
     19888 MEMB     159      PMPE     H13X     HAL2     0.900000E-01   1.00800           0
     19889 MEMB     159      PMPE     H13Y     HAL2     0.900000E-01   1.00800           0
     19890 MEMB     159      PMPE     C314     CTL2    -0.180000       12.0110           0
     19891 MEMB     159      PMPE     H14X     HAL2     0.900000E-01   1.00800           0
     19892 MEMB     159      PMPE     H14Y     HAL2     0.900000E-01   1.00800           0
     19893 MEMB     159      PMPE     C315     CTL2    -0.180000       12.0110           0
     19894 MEMB     159      PMPE     H15X     HAL2     0.900000E-01   1.00800           0
     19895 MEMB     159      PMPE     H15Y     HAL2     0.900000E-01   1.00800           0
     19896 MEMB     159      PMPE     C316     CTL3    -0.270000       12.0110           0
     19897 MEMB     159      PMPE     H16X     HAL3     0.900000E-01   1.00800           0
     19898 MEMB     159      PMPE     H16Y     HAL3     0.900000E-01   1.00800           0
     19899 MEMB     159      PMPE     H16Z     HAL3     0.900000E-01   1.00800           0
     19900 MEMB     160      PMPE     N        NH3L    -0.300000       14.0070           0
     19901 MEMB     160      PMPE     HN1      HCL      0.330000       1.00800           0
     19902 MEMB     160      PMPE     HN2      HCL      0.330000       1.00800           0
     19903 MEMB     160      PMPE     HN3      HCL      0.330000       1.00800           0
     19904 MEMB     160      PMPE     C12      CTL2     0.130000       12.0110           0
     19905 MEMB     160      PMPE     H12A     HAL2     0.900000E-01   1.00800           0
     19906 MEMB     160      PMPE     H12B     HAL2     0.900000E-01   1.00800           0
     19907 MEMB     160      PMPE     C11      CTL2    -0.800000E-01   12.0110           0
     19908 MEMB     160      PMPE     H11A     HAL2     0.900000E-01   1.00800           0
     19909 MEMB     160      PMPE     H11B     HAL2     0.900000E-01   1.00800           0
     19910 MEMB     160      PMPE     P        PL        1.50000       30.9740           0
     19911 MEMB     160      PMPE     O13      O2L     -0.780000       15.9994           0
     19912 MEMB     160      PMPE     O14      O2L     -0.780000       15.9994           0
     19913 MEMB     160      PMPE     O11      OSLP    -0.570000       15.9994           0
     19914 MEMB     160      PMPE     O12      OSLP    -0.570000       15.9994           0
     19915 MEMB     160      PMPE     C1       CTL2    -0.800000E-01   12.0110           0
     19916 MEMB     160      PMPE     HA       HAL2     0.900000E-01   1.00800           0
     19917 MEMB     160      PMPE     HB       HAL2     0.900000E-01   1.00800           0
     19918 MEMB     160      PMPE     C2       CTL1     0.170000       12.0110           0
     19919 MEMB     160      PMPE     HS       HAL1     0.900000E-01   1.00800           0
     19920 MEMB     160      PMPE     O21      OSL     -0.490000       15.9994           0
     19921 MEMB     160      PMPE     C21      CL       0.900000       12.0110           0
     19922 MEMB     160      PMPE     O22      OBL     -0.630000       15.9994           0
     19923 MEMB     160      PMPE     C22      CTL2    -0.220000       12.0110           0
     19924 MEMB     160      PMPE     H2R      HAL2     0.900000E-01   1.00800           0
     19925 MEMB     160      PMPE     H2S      HAL2     0.900000E-01   1.00800           0
     19926 MEMB     160      PMPE     C3       CTL2     0.800000E-01   12.0110           0
     19927 MEMB     160      PMPE     HX       HAL2     0.900000E-01   1.00800           0
     19928 MEMB     160      PMPE     HY       HAL2     0.900000E-01   1.00800           0
     19929 MEMB     160      PMPE     O31      OSL     -0.490000       15.9994           0
     19930 MEMB     160      PMPE     C31      CL       0.900000       12.0110           0
     19931 MEMB     160      PMPE     O32      OBL     -0.630000       15.9994           0
     19932 MEMB     160      PMPE     C32      CTL2    -0.220000       12.0110           0
     19933 MEMB     160      PMPE     H2X      HAL2     0.900000E-01   1.00800           0
     19934 MEMB     160      PMPE     H2Y      HAL2     0.900000E-01   1.00800           0
     19935 MEMB     160      PMPE     C23      CTL2    -0.180000       12.0110           0
     19936 MEMB     160      PMPE     H3R      HAL2     0.900000E-01   1.00800           0
     19937 MEMB     160      PMPE     H3S      HAL2     0.900000E-01   1.00800           0
     19938 MEMB     160      PMPE     C24      CTL2    -0.180000       12.0110           0
     19939 MEMB     160      PMPE     H4R      HAL2     0.900000E-01   1.00800           0
     19940 MEMB     160      PMPE     H4S      HAL2     0.900000E-01   1.00800           0
     19941 MEMB     160      PMPE     C25      CTL2    -0.180000       12.0110           0
     19942 MEMB     160      PMPE     H5R      HAL2     0.900000E-01   1.00800           0
     19943 MEMB     160      PMPE     H5S      HAL2     0.900000E-01   1.00800           0
     19944 MEMB     160      PMPE     C26      CTL2    -0.180000       12.0110           0
     19945 MEMB     160      PMPE     H6R      HAL2     0.900000E-01   1.00800           0
     19946 MEMB     160      PMPE     H6S      HAL2     0.900000E-01   1.00800           0
     19947 MEMB     160      PMPE     C27      CTL2    -0.180000       12.0110           0
     19948 MEMB     160      PMPE     H7R      HAL2     0.900000E-01   1.00800           0
     19949 MEMB     160      PMPE     H7S      HAL2     0.900000E-01   1.00800           0
     19950 MEMB     160      PMPE     C28      CTL2    -0.180000       12.0110           0
     19951 MEMB     160      PMPE     H8R      HAL2     0.900000E-01   1.00800           0
     19952 MEMB     160      PMPE     H8S      HAL2     0.900000E-01   1.00800           0
     19953 MEMB     160      PMPE     C29      CG3RC1  -0.900000E-01   12.0110           0
     19954 MEMB     160      PMPE     H9R      HGA1     0.900000E-01   1.00800           0
     19955 MEMB     160      PMPE     C217     CG3C31  -0.180000       12.0110           0
     19956 MEMB     160      PMPE     H17R     HGA2     0.900000E-01   1.00800           0
     19957 MEMB     160      PMPE     H17S     HGA2     0.900000E-01   1.00800           0
     19958 MEMB     160      PMPE     C210     CG3RC1  -0.900000E-01   12.0110           0
     19959 MEMB     160      PMPE     H10R     HGA1     0.900000E-01   1.00800           0
     19960 MEMB     160      PMPE     C211     CTL2    -0.180000       12.0110           0
     19961 MEMB     160      PMPE     H11R     HAL2     0.900000E-01   1.00800           0
     19962 MEMB     160      PMPE     H11S     HAL2     0.900000E-01   1.00800           0
     19963 MEMB     160      PMPE     C212     CTL2    -0.180000       12.0110           0
     19964 MEMB     160      PMPE     H12R     HAL2     0.900000E-01   1.00800           0
     19965 MEMB     160      PMPE     H12S     HAL2     0.900000E-01   1.00800           0
     19966 MEMB     160      PMPE     C213     CTL2    -0.180000       12.0110           0
     19967 MEMB     160      PMPE     H13R     HAL2     0.900000E-01   1.00800           0
     19968 MEMB     160      PMPE     H13S     HAL2     0.900000E-01   1.00800           0
     19969 MEMB     160      PMPE     C214     CTL2    -0.180000       12.0110           0
     19970 MEMB     160      PMPE     H14R     HAL2     0.900000E-01   1.00800           0
     19971 MEMB     160      PMPE     H14S     HAL2     0.900000E-01   1.00800           0
     19972 MEMB     160      PMPE     C215     CTL2    -0.180000       12.0110           0
     19973 MEMB     160      PMPE     H15R     HAL2     0.900000E-01   1.00800           0
     19974 MEMB     160      PMPE     H15S     HAL2     0.900000E-01   1.00800           0
     19975 MEMB     160      PMPE     C216     CTL3    -0.270000       12.0110           0
     19976 MEMB     160      PMPE     H16R     HAL3     0.900000E-01   1.00800           0
     19977 MEMB     160      PMPE     H16S     HAL3     0.900000E-01   1.00800           0
     19978 MEMB     160      PMPE     H16T     HAL3     0.900000E-01   1.00800           0
     19979 MEMB     160      PMPE     C33      CTL2    -0.180000       12.0110           0
     19980 MEMB     160      PMPE     H3X      HAL2     0.900000E-01   1.00800           0
     19981 MEMB     160      PMPE     H3Y      HAL2     0.900000E-01   1.00800           0
     19982 MEMB     160      PMPE     C34      CTL2    -0.180000       12.0110           0
     19983 MEMB     160      PMPE     H4X      HAL2     0.900000E-01   1.00800           0
     19984 MEMB     160      PMPE     H4Y      HAL2     0.900000E-01   1.00800           0
     19985 MEMB     160      PMPE     C35      CTL2    -0.180000       12.0110           0
     19986 MEMB     160      PMPE     H5X      HAL2     0.900000E-01   1.00800           0
     19987 MEMB     160      PMPE     H5Y      HAL2     0.900000E-01   1.00800           0
     19988 MEMB     160      PMPE     C36      CTL2    -0.180000       12.0110           0
     19989 MEMB     160      PMPE     H6X      HAL2     0.900000E-01   1.00800           0
     19990 MEMB     160      PMPE     H6Y      HAL2     0.900000E-01   1.00800           0
     19991 MEMB     160      PMPE     C37      CTL2    -0.180000       12.0110           0
     19992 MEMB     160      PMPE     H7X      HAL2     0.900000E-01   1.00800           0
     19993 MEMB     160      PMPE     H7Y      HAL2     0.900000E-01   1.00800           0
     19994 MEMB     160      PMPE     C38      CTL2    -0.180000       12.0110           0
     19995 MEMB     160      PMPE     H8X      HAL2     0.900000E-01   1.00800           0
     19996 MEMB     160      PMPE     H8Y      HAL2     0.900000E-01   1.00800           0
     19997 MEMB     160      PMPE     C39      CTL2    -0.180000       12.0110           0
     19998 MEMB     160      PMPE     H9X      HAL2     0.900000E-01   1.00800           0
     19999 MEMB     160      PMPE     H9Y      HAL2     0.900000E-01   1.00800           0
     20000 MEMB     160      PMPE     C310     CTL2    -0.180000       12.0110           0
     20001 MEMB     160      PMPE     H10X     HAL2     0.900000E-01   1.00800           0
     20002 MEMB     160      PMPE     H10Y     HAL2     0.900000E-01   1.00800           0
     20003 MEMB     160      PMPE     C311     CTL2    -0.180000       12.0110           0
     20004 MEMB     160      PMPE     H11X     HAL2     0.900000E-01   1.00800           0
     20005 MEMB     160      PMPE     H11Y     HAL2     0.900000E-01   1.00800           0
     20006 MEMB     160      PMPE     C312     CTL2    -0.180000       12.0110           0
     20007 MEMB     160      PMPE     H12X     HAL2     0.900000E-01   1.00800           0
     20008 MEMB     160      PMPE     H12Y     HAL2     0.900000E-01   1.00800           0
     20009 MEMB     160      PMPE     C313     CTL2    -0.180000       12.0110           0
     20010 MEMB     160      PMPE     H13X     HAL2     0.900000E-01   1.00800           0
     20011 MEMB     160      PMPE     H13Y     HAL2     0.900000E-01   1.00800           0
     20012 MEMB     160      PMPE     C314     CTL2    -0.180000       12.0110           0
     20013 MEMB     160      PMPE     H14X     HAL2     0.900000E-01   1.00800           0
     20014 MEMB     160      PMPE     H14Y     HAL2     0.900000E-01   1.00800           0
     20015 MEMB     160      PMPE     C315     CTL2    -0.180000       12.0110           0
     20016 MEMB     160      PMPE     H15X     HAL2     0.900000E-01   1.00800           0
     20017 MEMB     160      PMPE     H15Y     HAL2     0.900000E-01   1.00800           0
     20018 MEMB     160      PMPE     C316     CTL3    -0.270000       12.0110           0
     20019 MEMB     160      PMPE     H16X     HAL3     0.900000E-01   1.00800           0
     20020 MEMB     160      PMPE     H16Y     HAL3     0.900000E-01   1.00800           0
     20021 MEMB     160      PMPE     H16Z     HAL3     0.900000E-01   1.00800           0
     20022 MEMB     161      PMPE     N        NH3L    -0.300000       14.0070           0
     20023 MEMB     161      PMPE     HN1      HCL      0.330000       1.00800           0
     20024 MEMB     161      PMPE     HN2      HCL      0.330000       1.00800           0
     20025 MEMB     161      PMPE     HN3      HCL      0.330000       1.00800           0
     20026 MEMB     161      PMPE     C12      CTL2     0.130000       12.0110           0
     20027 MEMB     161      PMPE     H12A     HAL2     0.900000E-01   1.00800           0
     20028 MEMB     161      PMPE     H12B     HAL2     0.900000E-01   1.00800           0
     20029 MEMB     161      PMPE     C11      CTL2    -0.800000E-01   12.0110           0
     20030 MEMB     161      PMPE     H11A     HAL2     0.900000E-01   1.00800           0
     20031 MEMB     161      PMPE     H11B     HAL2     0.900000E-01   1.00800           0
     20032 MEMB     161      PMPE     P        PL        1.50000       30.9740           0
     20033 MEMB     161      PMPE     O13      O2L     -0.780000       15.9994           0
     20034 MEMB     161      PMPE     O14      O2L     -0.780000       15.9994           0
     20035 MEMB     161      PMPE     O11      OSLP    -0.570000       15.9994           0
     20036 MEMB     161      PMPE     O12      OSLP    -0.570000       15.9994           0
     20037 MEMB     161      PMPE     C1       CTL2    -0.800000E-01   12.0110           0
     20038 MEMB     161      PMPE     HA       HAL2     0.900000E-01   1.00800           0
     20039 MEMB     161      PMPE     HB       HAL2     0.900000E-01   1.00800           0
     20040 MEMB     161      PMPE     C2       CTL1     0.170000       12.0110           0
     20041 MEMB     161      PMPE     HS       HAL1     0.900000E-01   1.00800           0
     20042 MEMB     161      PMPE     O21      OSL     -0.490000       15.9994           0
     20043 MEMB     161      PMPE     C21      CL       0.900000       12.0110           0
     20044 MEMB     161      PMPE     O22      OBL     -0.630000       15.9994           0
     20045 MEMB     161      PMPE     C22      CTL2    -0.220000       12.0110           0
     20046 MEMB     161      PMPE     H2R      HAL2     0.900000E-01   1.00800           0
     20047 MEMB     161      PMPE     H2S      HAL2     0.900000E-01   1.00800           0
     20048 MEMB     161      PMPE     C3       CTL2     0.800000E-01   12.0110           0
     20049 MEMB     161      PMPE     HX       HAL2     0.900000E-01   1.00800           0
     20050 MEMB     161      PMPE     HY       HAL2     0.900000E-01   1.00800           0
     20051 MEMB     161      PMPE     O31      OSL     -0.490000       15.9994           0
     20052 MEMB     161      PMPE     C31      CL       0.900000       12.0110           0
     20053 MEMB     161      PMPE     O32      OBL     -0.630000       15.9994           0
     20054 MEMB     161      PMPE     C32      CTL2    -0.220000       12.0110           0
     20055 MEMB     161      PMPE     H2X      HAL2     0.900000E-01   1.00800           0
     20056 MEMB     161      PMPE     H2Y      HAL2     0.900000E-01   1.00800           0
     20057 MEMB     161      PMPE     C23      CTL2    -0.180000       12.0110           0
     20058 MEMB     161      PMPE     H3R      HAL2     0.900000E-01   1.00800           0
     20059 MEMB     161      PMPE     H3S      HAL2     0.900000E-01   1.00800           0
     20060 MEMB     161      PMPE     C24      CTL2    -0.180000       12.0110           0
     20061 MEMB     161      PMPE     H4R      HAL2     0.900000E-01   1.00800           0
     20062 MEMB     161      PMPE     H4S      HAL2     0.900000E-01   1.00800           0
     20063 MEMB     161      PMPE     C25      CTL2    -0.180000       12.0110           0
     20064 MEMB     161      PMPE     H5R      HAL2     0.900000E-01   1.00800           0
     20065 MEMB     161      PMPE     H5S      HAL2     0.900000E-01   1.00800           0
     20066 MEMB     161      PMPE     C26      CTL2    -0.180000       12.0110           0
     20067 MEMB     161      PMPE     H6R      HAL2     0.900000E-01   1.00800           0
     20068 MEMB     161      PMPE     H6S      HAL2     0.900000E-01   1.00800           0
     20069 MEMB     161      PMPE     C27      CTL2    -0.180000       12.0110           0
     20070 MEMB     161      PMPE     H7R      HAL2     0.900000E-01   1.00800           0
     20071 MEMB     161      PMPE     H7S      HAL2     0.900000E-01   1.00800           0
     20072 MEMB     161      PMPE     C28      CTL2    -0.180000       12.0110           0
     20073 MEMB     161      PMPE     H8R      HAL2     0.900000E-01   1.00800           0
     20074 MEMB     161      PMPE     H8S      HAL2     0.900000E-01   1.00800           0
     20075 MEMB     161      PMPE     C29      CG3RC1  -0.900000E-01   12.0110           0
     20076 MEMB     161      PMPE     H9R      HGA1     0.900000E-01   1.00800           0
     20077 MEMB     161      PMPE     C217     CG3C31  -0.180000       12.0110           0
     20078 MEMB     161      PMPE     H17R     HGA2     0.900000E-01   1.00800           0
     20079 MEMB     161      PMPE     H17S     HGA2     0.900000E-01   1.00800           0
     20080 MEMB     161      PMPE     C210     CG3RC1  -0.900000E-01   12.0110           0
     20081 MEMB     161      PMPE     H10R     HGA1     0.900000E-01   1.00800           0
     20082 MEMB     161      PMPE     C211     CTL2    -0.180000       12.0110           0
     20083 MEMB     161      PMPE     H11R     HAL2     0.900000E-01   1.00800           0
     20084 MEMB     161      PMPE     H11S     HAL2     0.900000E-01   1.00800           0
     20085 MEMB     161      PMPE     C212     CTL2    -0.180000       12.0110           0
     20086 MEMB     161      PMPE     H12R     HAL2     0.900000E-01   1.00800           0
     20087 MEMB     161      PMPE     H12S     HAL2     0.900000E-01   1.00800           0
     20088 MEMB     161      PMPE     C213     CTL2    -0.180000       12.0110           0
     20089 MEMB     161      PMPE     H13R     HAL2     0.900000E-01   1.00800           0
     20090 MEMB     161      PMPE     H13S     HAL2     0.900000E-01   1.00800           0
     20091 MEMB     161      PMPE     C214     CTL2    -0.180000       12.0110           0
     20092 MEMB     161      PMPE     H14R     HAL2     0.900000E-01   1.00800           0
     20093 MEMB     161      PMPE     H14S     HAL2     0.900000E-01   1.00800           0
     20094 MEMB     161      PMPE     C215     CTL2    -0.180000       12.0110           0
     20095 MEMB     161      PMPE     H15R     HAL2     0.900000E-01   1.00800           0
     20096 MEMB     161      PMPE     H15S     HAL2     0.900000E-01   1.00800           0
     20097 MEMB     161      PMPE     C216     CTL3    -0.270000       12.0110           0
     20098 MEMB     161      PMPE     H16R     HAL3     0.900000E-01   1.00800           0
     20099 MEMB     161      PMPE     H16S     HAL3     0.900000E-01   1.00800           0
     20100 MEMB     161      PMPE     H16T     HAL3     0.900000E-01   1.00800           0
     20101 MEMB     161      PMPE     C33      CTL2    -0.180000       12.0110           0
     20102 MEMB     161      PMPE     H3X      HAL2     0.900000E-01   1.00800           0
     20103 MEMB     161      PMPE     H3Y      HAL2     0.900000E-01   1.00800           0
     20104 MEMB     161      PMPE     C34      CTL2    -0.180000       12.0110           0
     20105 MEMB     161      PMPE     H4X      HAL2     0.900000E-01   1.00800           0
     20106 MEMB     161      PMPE     H4Y      HAL2     0.900000E-01   1.00800           0
     20107 MEMB     161      PMPE     C35      CTL2    -0.180000       12.0110           0
     20108 MEMB     161      PMPE     H5X      HAL2     0.900000E-01   1.00800           0
     20109 MEMB     161      PMPE     H5Y      HAL2     0.900000E-01   1.00800           0
     20110 MEMB     161      PMPE     C36      CTL2    -0.180000       12.0110           0
     20111 MEMB     161      PMPE     H6X      HAL2     0.900000E-01   1.00800           0
     20112 MEMB     161      PMPE     H6Y      HAL2     0.900000E-01   1.00800           0
     20113 MEMB     161      PMPE     C37      CTL2    -0.180000       12.0110           0
     20114 MEMB     161      PMPE     H7X      HAL2     0.900000E-01   1.00800           0
     20115 MEMB     161      PMPE     H7Y      HAL2     0.900000E-01   1.00800           0
     20116 MEMB     161      PMPE     C38      CTL2    -0.180000       12.0110           0
     20117 MEMB     161      PMPE     H8X      HAL2     0.900000E-01   1.00800           0
     20118 MEMB     161      PMPE     H8Y      HAL2     0.900000E-01   1.00800           0
     20119 MEMB     161      PMPE     C39      CTL2    -0.180000       12.0110           0
     20120 MEMB     161      PMPE     H9X      HAL2     0.900000E-01   1.00800           0
     20121 MEMB     161      PMPE     H9Y      HAL2     0.900000E-01   1.00800           0
     20122 MEMB     161      PMPE     C310     CTL2    -0.180000       12.0110           0
     20123 MEMB     161      PMPE     H10X     HAL2     0.900000E-01   1.00800           0
     20124 MEMB     161      PMPE     H10Y     HAL2     0.900000E-01   1.00800           0
     20125 MEMB     161      PMPE     C311     CTL2    -0.180000       12.0110           0
     20126 MEMB     161      PMPE     H11X     HAL2     0.900000E-01   1.00800           0
     20127 MEMB     161      PMPE     H11Y     HAL2     0.900000E-01   1.00800           0
     20128 MEMB     161      PMPE     C312     CTL2    -0.180000       12.0110           0
     20129 MEMB     161      PMPE     H12X     HAL2     0.900000E-01   1.00800           0
     20130 MEMB     161      PMPE     H12Y     HAL2     0.900000E-01   1.00800           0
     20131 MEMB     161      PMPE     C313     CTL2    -0.180000       12.0110           0
     20132 MEMB     161      PMPE     H13X     HAL2     0.900000E-01   1.00800           0
     20133 MEMB     161      PMPE     H13Y     HAL2     0.900000E-01   1.00800           0
     20134 MEMB     161      PMPE     C314     CTL2    -0.180000       12.0110           0
     20135 MEMB     161      PMPE     H14X     HAL2     0.900000E-01   1.00800           0
     20136 MEMB     161      PMPE     H14Y     HAL2     0.900000E-01   1.00800           0
     20137 MEMB     161      PMPE     C315     CTL2    -0.180000       12.0110           0
     20138 MEMB     161      PMPE     H15X     HAL2     0.900000E-01   1.00800           0
     20139 MEMB     161      PMPE     H15Y     HAL2     0.900000E-01   1.00800           0
     20140 MEMB     161      PMPE     C316     CTL3    -0.270000       12.0110           0
     20141 MEMB     161      PMPE     H16X     HAL3     0.900000E-01   1.00800           0
     20142 MEMB     161      PMPE     H16Y     HAL3     0.900000E-01   1.00800           0
     20143 MEMB     161      PMPE     H16Z     HAL3     0.900000E-01   1.00800           0
     20144 MEMB     162      OYPE     N        NH3L    -0.300000       14.0070           0
     20145 MEMB     162      OYPE     HN1      HCL      0.330000       1.00800           0
     20146 MEMB     162      OYPE     HN2      HCL      0.330000       1.00800           0
     20147 MEMB     162      OYPE     HN3      HCL      0.330000       1.00800           0
     20148 MEMB     162      OYPE     C12      CTL2     0.130000       12.0110           0
     20149 MEMB     162      OYPE     H12A     HAL2     0.900000E-01   1.00800           0
     20150 MEMB     162      OYPE     H12B     HAL2     0.900000E-01   1.00800           0
     20151 MEMB     162      OYPE     C11      CTL2    -0.800000E-01   12.0110           0
     20152 MEMB     162      OYPE     H11A     HAL2     0.900000E-01   1.00800           0
     20153 MEMB     162      OYPE     H11B     HAL2     0.900000E-01   1.00800           0
     20154 MEMB     162      OYPE     P        PL        1.50000       30.9740           0
     20155 MEMB     162      OYPE     O13      O2L     -0.780000       15.9994           0
     20156 MEMB     162      OYPE     O14      O2L     -0.780000       15.9994           0
     20157 MEMB     162      OYPE     O11      OSLP    -0.570000       15.9994           0
     20158 MEMB     162      OYPE     O12      OSLP    -0.570000       15.9994           0
     20159 MEMB     162      OYPE     C1       CTL2    -0.800000E-01   12.0110           0
     20160 MEMB     162      OYPE     HA       HAL2     0.900000E-01   1.00800           0
     20161 MEMB     162      OYPE     HB       HAL2     0.900000E-01   1.00800           0
     20162 MEMB     162      OYPE     C2       CTL1     0.170000       12.0110           0
     20163 MEMB     162      OYPE     HS       HAL1     0.900000E-01   1.00800           0
     20164 MEMB     162      OYPE     O21      OSL     -0.490000       15.9994           0
     20165 MEMB     162      OYPE     C21      CL       0.900000       12.0110           0
     20166 MEMB     162      OYPE     O22      OBL     -0.630000       15.9994           0
     20167 MEMB     162      OYPE     C22      CTL2    -0.220000       12.0110           0
     20168 MEMB     162      OYPE     H2R      HAL2     0.900000E-01   1.00800           0
     20169 MEMB     162      OYPE     H2S      HAL2     0.900000E-01   1.00800           0
     20170 MEMB     162      OYPE     C3       CTL2     0.800000E-01   12.0110           0
     20171 MEMB     162      OYPE     HX       HAL2     0.900000E-01   1.00800           0
     20172 MEMB     162      OYPE     HY       HAL2     0.900000E-01   1.00800           0
     20173 MEMB     162      OYPE     O31      OSL     -0.490000       15.9994           0
     20174 MEMB     162      OYPE     C31      CL       0.900000       12.0110           0
     20175 MEMB     162      OYPE     O32      OBL     -0.630000       15.9994           0
     20176 MEMB     162      OYPE     C32      CTL2    -0.220000       12.0110           0
     20177 MEMB     162      OYPE     H2X      HAL2     0.900000E-01   1.00800           0
     20178 MEMB     162      OYPE     H2Y      HAL2     0.900000E-01   1.00800           0
     20179 MEMB     162      OYPE     C23      CTL2    -0.180000       12.0110           0
     20180 MEMB     162      OYPE     H3R      HAL2     0.900000E-01   1.00800           0
     20181 MEMB     162      OYPE     H3S      HAL2     0.900000E-01   1.00800           0
     20182 MEMB     162      OYPE     C24      CTL2    -0.180000       12.0110           0
     20183 MEMB     162      OYPE     H4R      HAL2     0.900000E-01   1.00800           0
     20184 MEMB     162      OYPE     H4S      HAL2     0.900000E-01   1.00800           0
     20185 MEMB     162      OYPE     C25      CTL2    -0.180000       12.0110           0
     20186 MEMB     162      OYPE     H5R      HAL2     0.900000E-01   1.00800           0
     20187 MEMB     162      OYPE     H5S      HAL2     0.900000E-01   1.00800           0
     20188 MEMB     162      OYPE     C26      CTL2    -0.180000       12.0110           0
     20189 MEMB     162      OYPE     H6R      HAL2     0.900000E-01   1.00800           0
     20190 MEMB     162      OYPE     H6S      HAL2     0.900000E-01   1.00800           0
     20191 MEMB     162      OYPE     C27      CTL2    -0.180000       12.0110           0
     20192 MEMB     162      OYPE     H7R      HAL2     0.900000E-01   1.00800           0
     20193 MEMB     162      OYPE     H7S      HAL2     0.900000E-01   1.00800           0
     20194 MEMB     162      OYPE     C28      CTL2    -0.180000       12.0110           0
     20195 MEMB     162      OYPE     H8R      HAL2     0.900000E-01   1.00800           0
     20196 MEMB     162      OYPE     H8S      HAL2     0.900000E-01   1.00800           0
     20197 MEMB     162      OYPE     C29      CEL1    -0.150000       12.0110           0
     20198 MEMB     162      OYPE     H9R      HEL1     0.150000       1.00800           0
     20199 MEMB     162      OYPE     C210     CEL1    -0.150000       12.0110           0
     20200 MEMB     162      OYPE     H10R     HEL1     0.150000       1.00800           0
     20201 MEMB     162      OYPE     C211     CTL2    -0.180000       12.0110           0
     20202 MEMB     162      OYPE     H11R     HAL2     0.900000E-01   1.00800           0
     20203 MEMB     162      OYPE     H11S     HAL2     0.900000E-01   1.00800           0
     20204 MEMB     162      OYPE     C212     CTL2    -0.180000       12.0110           0
     20205 MEMB     162      OYPE     H12R     HAL2     0.900000E-01   1.00800           0
     20206 MEMB     162      OYPE     H12S     HAL2     0.900000E-01   1.00800           0
     20207 MEMB     162      OYPE     C213     CTL2    -0.180000       12.0110           0
     20208 MEMB     162      OYPE     H13R     HAL2     0.900000E-01   1.00800           0
     20209 MEMB     162      OYPE     H13S     HAL2     0.900000E-01   1.00800           0
     20210 MEMB     162      OYPE     C214     CTL2    -0.180000       12.0110           0
     20211 MEMB     162      OYPE     H14R     HAL2     0.900000E-01   1.00800           0
     20212 MEMB     162      OYPE     H14S     HAL2     0.900000E-01   1.00800           0
     20213 MEMB     162      OYPE     C215     CTL2    -0.180000       12.0110           0
     20214 MEMB     162      OYPE     H15R     HAL2     0.900000E-01   1.00800           0
     20215 MEMB     162      OYPE     H15S     HAL2     0.900000E-01   1.00800           0
     20216 MEMB     162      OYPE     C216     CTL3    -0.270000       12.0110           0
     20217 MEMB     162      OYPE     H16R     HAL3     0.900000E-01   1.00800           0
     20218 MEMB     162      OYPE     H16S     HAL3     0.900000E-01   1.00800           0
     20219 MEMB     162      OYPE     H16T     HAL3     0.900000E-01   1.00800           0
     20220 MEMB     162      OYPE     C33      CTL2    -0.180000       12.0110           0
     20221 MEMB     162      OYPE     H3X      HAL2     0.900000E-01   1.00800           0
     20222 MEMB     162      OYPE     H3Y      HAL2     0.900000E-01   1.00800           0
     20223 MEMB     162      OYPE     C34      CTL2    -0.180000       12.0110           0
     20224 MEMB     162      OYPE     H4X      HAL2     0.900000E-01   1.00800           0
     20225 MEMB     162      OYPE     H4Y      HAL2     0.900000E-01   1.00800           0
     20226 MEMB     162      OYPE     C35      CTL2    -0.180000       12.0110           0
     20227 MEMB     162      OYPE     H5X      HAL2     0.900000E-01   1.00800           0
     20228 MEMB     162      OYPE     H5Y      HAL2     0.900000E-01   1.00800           0
     20229 MEMB     162      OYPE     C36      CTL2    -0.180000       12.0110           0
     20230 MEMB     162      OYPE     H6X      HAL2     0.900000E-01   1.00800           0
     20231 MEMB     162      OYPE     H6Y      HAL2     0.900000E-01   1.00800           0
     20232 MEMB     162      OYPE     C37      CTL2    -0.180000       12.0110           0
     20233 MEMB     162      OYPE     H7X      HAL2     0.900000E-01   1.00800           0
     20234 MEMB     162      OYPE     H7Y      HAL2     0.900000E-01   1.00800           0
     20235 MEMB     162      OYPE     C38      CTL2    -0.180000       12.0110           0
     20236 MEMB     162      OYPE     H8X      HAL2     0.900000E-01   1.00800           0
     20237 MEMB     162      OYPE     H8Y      HAL2     0.900000E-01   1.00800           0
     20238 MEMB     162      OYPE     C39      CEL1    -0.150000       12.0110           0
     20239 MEMB     162      OYPE     H9X      HEL1     0.150000       1.00800           0
     20240 MEMB     162      OYPE     C310     CEL1    -0.150000       12.0110           0
     20241 MEMB     162      OYPE     H10X     HEL1     0.150000       1.00800           0
     20242 MEMB     162      OYPE     C311     CTL2    -0.180000       12.0110           0
     20243 MEMB     162      OYPE     H11X     HAL2     0.900000E-01   1.00800           0
     20244 MEMB     162      OYPE     H11Y     HAL2     0.900000E-01   1.00800           0
     20245 MEMB     162      OYPE     C312     CTL2    -0.180000       12.0110           0
     20246 MEMB     162      OYPE     H12X     HAL2     0.900000E-01   1.00800           0
     20247 MEMB     162      OYPE     H12Y     HAL2     0.900000E-01   1.00800           0
     20248 MEMB     162      OYPE     C313     CTL2    -0.180000       12.0110           0
     20249 MEMB     162      OYPE     H13X     HAL2     0.900000E-01   1.00800           0
     20250 MEMB     162      OYPE     H13Y     HAL2     0.900000E-01   1.00800           0
     20251 MEMB     162      OYPE     C314     CTL2    -0.180000       12.0110           0
     20252 MEMB     162      OYPE     H14X     HAL2     0.900000E-01   1.00800           0
     20253 MEMB     162      OYPE     H14Y     HAL2     0.900000E-01   1.00800           0
     20254 MEMB     162      OYPE     C315     CTL2    -0.180000       12.0110           0
     20255 MEMB     162      OYPE     H15X     HAL2     0.900000E-01   1.00800           0
     20256 MEMB     162      OYPE     H15Y     HAL2     0.900000E-01   1.00800           0
     20257 MEMB     162      OYPE     C316     CTL2    -0.180000       12.0110           0
     20258 MEMB     162      OYPE     H16X     HAL2     0.900000E-01   1.00800           0
     20259 MEMB     162      OYPE     H16Y     HAL2     0.900000E-01   1.00800           0
     20260 MEMB     162      OYPE     C317     CTL2    -0.180000       12.0110           0
     20261 MEMB     162      OYPE     H17X     HAL2     0.900000E-01   1.00800           0
     20262 MEMB     162      OYPE     H17Y     HAL2     0.900000E-01   1.00800           0
     20263 MEMB     162      OYPE     C318     CTL3    -0.270000       12.0110           0
     20264 MEMB     162      OYPE     H18X     HAL3     0.900000E-01   1.00800           0
     20265 MEMB     162      OYPE     H18Y     HAL3     0.900000E-01   1.00800           0
     20266 MEMB     162      OYPE     H18Z     HAL3     0.900000E-01   1.00800           0
     20267 MEMB     163      PMPE     N        NH3L    -0.300000       14.0070           0
     20268 MEMB     163      PMPE     HN1      HCL      0.330000       1.00800           0
     20269 MEMB     163      PMPE     HN2      HCL      0.330000       1.00800           0
     20270 MEMB     163      PMPE     HN3      HCL      0.330000       1.00800           0
     20271 MEMB     163      PMPE     C12      CTL2     0.130000       12.0110           0
     20272 MEMB     163      PMPE     H12A     HAL2     0.900000E-01   1.00800           0
     20273 MEMB     163      PMPE     H12B     HAL2     0.900000E-01   1.00800           0
     20274 MEMB     163      PMPE     C11      CTL2    -0.800000E-01   12.0110           0
     20275 MEMB     163      PMPE     H11A     HAL2     0.900000E-01   1.00800           0
     20276 MEMB     163      PMPE     H11B     HAL2     0.900000E-01   1.00800           0
     20277 MEMB     163      PMPE     P        PL        1.50000       30.9740           0
     20278 MEMB     163      PMPE     O13      O2L     -0.780000       15.9994           0
     20279 MEMB     163      PMPE     O14      O2L     -0.780000       15.9994           0
     20280 MEMB     163      PMPE     O11      OSLP    -0.570000       15.9994           0
     20281 MEMB     163      PMPE     O12      OSLP    -0.570000       15.9994           0
     20282 MEMB     163      PMPE     C1       CTL2    -0.800000E-01   12.0110           0
     20283 MEMB     163      PMPE     HA       HAL2     0.900000E-01   1.00800           0
     20284 MEMB     163      PMPE     HB       HAL2     0.900000E-01   1.00800           0
     20285 MEMB     163      PMPE     C2       CTL1     0.170000       12.0110           0
     20286 MEMB     163      PMPE     HS       HAL1     0.900000E-01   1.00800           0
     20287 MEMB     163      PMPE     O21      OSL     -0.490000       15.9994           0
     20288 MEMB     163      PMPE     C21      CL       0.900000       12.0110           0
     20289 MEMB     163      PMPE     O22      OBL     -0.630000       15.9994           0
     20290 MEMB     163      PMPE     C22      CTL2    -0.220000       12.0110           0
     20291 MEMB     163      PMPE     H2R      HAL2     0.900000E-01   1.00800           0
     20292 MEMB     163      PMPE     H2S      HAL2     0.900000E-01   1.00800           0
     20293 MEMB     163      PMPE     C3       CTL2     0.800000E-01   12.0110           0
     20294 MEMB     163      PMPE     HX       HAL2     0.900000E-01   1.00800           0
     20295 MEMB     163      PMPE     HY       HAL2     0.900000E-01   1.00800           0
     20296 MEMB     163      PMPE     O31      OSL     -0.490000       15.9994           0
     20297 MEMB     163      PMPE     C31      CL       0.900000       12.0110           0
     20298 MEMB     163      PMPE     O32      OBL     -0.630000       15.9994           0
     20299 MEMB     163      PMPE     C32      CTL2    -0.220000       12.0110           0
     20300 MEMB     163      PMPE     H2X      HAL2     0.900000E-01   1.00800           0
     20301 MEMB     163      PMPE     H2Y      HAL2     0.900000E-01   1.00800           0
     20302 MEMB     163      PMPE     C23      CTL2    -0.180000       12.0110           0
     20303 MEMB     163      PMPE     H3R      HAL2     0.900000E-01   1.00800           0
     20304 MEMB     163      PMPE     H3S      HAL2     0.900000E-01   1.00800           0
     20305 MEMB     163      PMPE     C24      CTL2    -0.180000       12.0110           0
     20306 MEMB     163      PMPE     H4R      HAL2     0.900000E-01   1.00800           0
     20307 MEMB     163      PMPE     H4S      HAL2     0.900000E-01   1.00800           0
     20308 MEMB     163      PMPE     C25      CTL2    -0.180000       12.0110           0
     20309 MEMB     163      PMPE     H5R      HAL2     0.900000E-01   1.00800           0
     20310 MEMB     163      PMPE     H5S      HAL2     0.900000E-01   1.00800           0
     20311 MEMB     163      PMPE     C26      CTL2    -0.180000       12.0110           0
     20312 MEMB     163      PMPE     H6R      HAL2     0.900000E-01   1.00800           0
     20313 MEMB     163      PMPE     H6S      HAL2     0.900000E-01   1.00800           0
     20314 MEMB     163      PMPE     C27      CTL2    -0.180000       12.0110           0
     20315 MEMB     163      PMPE     H7R      HAL2     0.900000E-01   1.00800           0
     20316 MEMB     163      PMPE     H7S      HAL2     0.900000E-01   1.00800           0
     20317 MEMB     163      PMPE     C28      CTL2    -0.180000       12.0110           0
     20318 MEMB     163      PMPE     H8R      HAL2     0.900000E-01   1.00800           0
     20319 MEMB     163      PMPE     H8S      HAL2     0.900000E-01   1.00800           0
     20320 MEMB     163      PMPE     C29      CG3RC1  -0.900000E-01   12.0110           0
     20321 MEMB     163      PMPE     H9R      HGA1     0.900000E-01   1.00800           0
     20322 MEMB     163      PMPE     C217     CG3C31  -0.180000       12.0110           0
     20323 MEMB     163      PMPE     H17R     HGA2     0.900000E-01   1.00800           0
     20324 MEMB     163      PMPE     H17S     HGA2     0.900000E-01   1.00800           0
     20325 MEMB     163      PMPE     C210     CG3RC1  -0.900000E-01   12.0110           0
     20326 MEMB     163      PMPE     H10R     HGA1     0.900000E-01   1.00800           0
     20327 MEMB     163      PMPE     C211     CTL2    -0.180000       12.0110           0
     20328 MEMB     163      PMPE     H11R     HAL2     0.900000E-01   1.00800           0
     20329 MEMB     163      PMPE     H11S     HAL2     0.900000E-01   1.00800           0
     20330 MEMB     163      PMPE     C212     CTL2    -0.180000       12.0110           0
     20331 MEMB     163      PMPE     H12R     HAL2     0.900000E-01   1.00800           0
     20332 MEMB     163      PMPE     H12S     HAL2     0.900000E-01   1.00800           0
     20333 MEMB     163      PMPE     C213     CTL2    -0.180000       12.0110           0
     20334 MEMB     163      PMPE     H13R     HAL2     0.900000E-01   1.00800           0
     20335 MEMB     163      PMPE     H13S     HAL2     0.900000E-01   1.00800           0
     20336 MEMB     163      PMPE     C214     CTL2    -0.180000       12.0110           0
     20337 MEMB     163      PMPE     H14R     HAL2     0.900000E-01   1.00800           0
     20338 MEMB     163      PMPE     H14S     HAL2     0.900000E-01   1.00800           0
     20339 MEMB     163      PMPE     C215     CTL2    -0.180000       12.0110           0
     20340 MEMB     163      PMPE     H15R     HAL2     0.900000E-01   1.00800           0
     20341 MEMB     163      PMPE     H15S     HAL2     0.900000E-01   1.00800           0
     20342 MEMB     163      PMPE     C216     CTL3    -0.270000       12.0110           0
     20343 MEMB     163      PMPE     H16R     HAL3     0.900000E-01   1.00800           0
     20344 MEMB     163      PMPE     H16S     HAL3     0.900000E-01   1.00800           0
     20345 MEMB     163      PMPE     H16T     HAL3     0.900000E-01   1.00800           0
     20346 MEMB     163      PMPE     C33      CTL2    -0.180000       12.0110           0
     20347 MEMB     163      PMPE     H3X      HAL2     0.900000E-01   1.00800           0
     20348 MEMB     163      PMPE     H3Y      HAL2     0.900000E-01   1.00800           0
     20349 MEMB     163      PMPE     C34      CTL2    -0.180000       12.0110           0
     20350 MEMB     163      PMPE     H4X      HAL2     0.900000E-01   1.00800           0
     20351 MEMB     163      PMPE     H4Y      HAL2     0.900000E-01   1.00800           0
     20352 MEMB     163      PMPE     C35      CTL2    -0.180000       12.0110           0
     20353 MEMB     163      PMPE     H5X      HAL2     0.900000E-01   1.00800           0
     20354 MEMB     163      PMPE     H5Y      HAL2     0.900000E-01   1.00800           0
     20355 MEMB     163      PMPE     C36      CTL2    -0.180000       12.0110           0
     20356 MEMB     163      PMPE     H6X      HAL2     0.900000E-01   1.00800           0
     20357 MEMB     163      PMPE     H6Y      HAL2     0.900000E-01   1.00800           0
     20358 MEMB     163      PMPE     C37      CTL2    -0.180000       12.0110           0
     20359 MEMB     163      PMPE     H7X      HAL2     0.900000E-01   1.00800           0
     20360 MEMB     163      PMPE     H7Y      HAL2     0.900000E-01   1.00800           0
     20361 MEMB     163      PMPE     C38      CTL2    -0.180000       12.0110           0
     20362 MEMB     163      PMPE     H8X      HAL2     0.900000E-01   1.00800           0
     20363 MEMB     163      PMPE     H8Y      HAL2     0.900000E-01   1.00800           0
     20364 MEMB     163      PMPE     C39      CTL2    -0.180000       12.0110           0
     20365 MEMB     163      PMPE     H9X      HAL2     0.900000E-01   1.00800           0
     20366 MEMB     163      PMPE     H9Y      HAL2     0.900000E-01   1.00800           0
     20367 MEMB     163      PMPE     C310     CTL2    -0.180000       12.0110           0
     20368 MEMB     163      PMPE     H10X     HAL2     0.900000E-01   1.00800           0
     20369 MEMB     163      PMPE     H10Y     HAL2     0.900000E-01   1.00800           0
     20370 MEMB     163      PMPE     C311     CTL2    -0.180000       12.0110           0
     20371 MEMB     163      PMPE     H11X     HAL2     0.900000E-01   1.00800           0
     20372 MEMB     163      PMPE     H11Y     HAL2     0.900000E-01   1.00800           0
     20373 MEMB     163      PMPE     C312     CTL2    -0.180000       12.0110           0
     20374 MEMB     163      PMPE     H12X     HAL2     0.900000E-01   1.00800           0
     20375 MEMB     163      PMPE     H12Y     HAL2     0.900000E-01   1.00800           0
     20376 MEMB     163      PMPE     C313     CTL2    -0.180000       12.0110           0
     20377 MEMB     163      PMPE     H13X     HAL2     0.900000E-01   1.00800           0
     20378 MEMB     163      PMPE     H13Y     HAL2     0.900000E-01   1.00800           0
     20379 MEMB     163      PMPE     C314     CTL2    -0.180000       12.0110           0
     20380 MEMB     163      PMPE     H14X     HAL2     0.900000E-01   1.00800           0
     20381 MEMB     163      PMPE     H14Y     HAL2     0.900000E-01   1.00800           0
     20382 MEMB     163      PMPE     C315     CTL2    -0.180000       12.0110           0
     20383 MEMB     163      PMPE     H15X     HAL2     0.900000E-01   1.00800           0
     20384 MEMB     163      PMPE     H15Y     HAL2     0.900000E-01   1.00800           0
     20385 MEMB     163      PMPE     C316     CTL3    -0.270000       12.0110           0
     20386 MEMB     163      PMPE     H16X     HAL3     0.900000E-01   1.00800           0
     20387 MEMB     163      PMPE     H16Y     HAL3     0.900000E-01   1.00800           0
     20388 MEMB     163      PMPE     H16Z     HAL3     0.900000E-01   1.00800           0
     20389 MEMB     164      PMPE     N        NH3L    -0.300000       14.0070           0
     20390 MEMB     164      PMPE     HN1      HCL      0.330000       1.00800           0
     20391 MEMB     164      PMPE     HN2      HCL      0.330000       1.00800           0
     20392 MEMB     164      PMPE     HN3      HCL      0.330000       1.00800           0
     20393 MEMB     164      PMPE     C12      CTL2     0.130000       12.0110           0
     20394 MEMB     164      PMPE     H12A     HAL2     0.900000E-01   1.00800           0
     20395 MEMB     164      PMPE     H12B     HAL2     0.900000E-01   1.00800           0
     20396 MEMB     164      PMPE     C11      CTL2    -0.800000E-01   12.0110           0
     20397 MEMB     164      PMPE     H11A     HAL2     0.900000E-01   1.00800           0
     20398 MEMB     164      PMPE     H11B     HAL2     0.900000E-01   1.00800           0
     20399 MEMB     164      PMPE     P        PL        1.50000       30.9740           0
     20400 MEMB     164      PMPE     O13      O2L     -0.780000       15.9994           0
     20401 MEMB     164      PMPE     O14      O2L     -0.780000       15.9994           0
     20402 MEMB     164      PMPE     O11      OSLP    -0.570000       15.9994           0
     20403 MEMB     164      PMPE     O12      OSLP    -0.570000       15.9994           0
     20404 MEMB     164      PMPE     C1       CTL2    -0.800000E-01   12.0110           0
     20405 MEMB     164      PMPE     HA       HAL2     0.900000E-01   1.00800           0
     20406 MEMB     164      PMPE     HB       HAL2     0.900000E-01   1.00800           0
     20407 MEMB     164      PMPE     C2       CTL1     0.170000       12.0110           0
     20408 MEMB     164      PMPE     HS       HAL1     0.900000E-01   1.00800           0
     20409 MEMB     164      PMPE     O21      OSL     -0.490000       15.9994           0
     20410 MEMB     164      PMPE     C21      CL       0.900000       12.0110           0
     20411 MEMB     164      PMPE     O22      OBL     -0.630000       15.9994           0
     20412 MEMB     164      PMPE     C22      CTL2    -0.220000       12.0110           0
     20413 MEMB     164      PMPE     H2R      HAL2     0.900000E-01   1.00800           0
     20414 MEMB     164      PMPE     H2S      HAL2     0.900000E-01   1.00800           0
     20415 MEMB     164      PMPE     C3       CTL2     0.800000E-01   12.0110           0
     20416 MEMB     164      PMPE     HX       HAL2     0.900000E-01   1.00800           0
     20417 MEMB     164      PMPE     HY       HAL2     0.900000E-01   1.00800           0
     20418 MEMB     164      PMPE     O31      OSL     -0.490000       15.9994           0
     20419 MEMB     164      PMPE     C31      CL       0.900000       12.0110           0
     20420 MEMB     164      PMPE     O32      OBL     -0.630000       15.9994           0
     20421 MEMB     164      PMPE     C32      CTL2    -0.220000       12.0110           0
     20422 MEMB     164      PMPE     H2X      HAL2     0.900000E-01   1.00800           0
     20423 MEMB     164      PMPE     H2Y      HAL2     0.900000E-01   1.00800           0
     20424 MEMB     164      PMPE     C23      CTL2    -0.180000       12.0110           0
     20425 MEMB     164      PMPE     H3R      HAL2     0.900000E-01   1.00800           0
     20426 MEMB     164      PMPE     H3S      HAL2     0.900000E-01   1.00800           0
     20427 MEMB     164      PMPE     C24      CTL2    -0.180000       12.0110           0
     20428 MEMB     164      PMPE     H4R      HAL2     0.900000E-01   1.00800           0
     20429 MEMB     164      PMPE     H4S      HAL2     0.900000E-01   1.00800           0
     20430 MEMB     164      PMPE     C25      CTL2    -0.180000       12.0110           0
     20431 MEMB     164      PMPE     H5R      HAL2     0.900000E-01   1.00800           0
     20432 MEMB     164      PMPE     H5S      HAL2     0.900000E-01   1.00800           0
     20433 MEMB     164      PMPE     C26      CTL2    -0.180000       12.0110           0
     20434 MEMB     164      PMPE     H6R      HAL2     0.900000E-01   1.00800           0
     20435 MEMB     164      PMPE     H6S      HAL2     0.900000E-01   1.00800           0
     20436 MEMB     164      PMPE     C27      CTL2    -0.180000       12.0110           0
     20437 MEMB     164      PMPE     H7R      HAL2     0.900000E-01   1.00800           0
     20438 MEMB     164      PMPE     H7S      HAL2     0.900000E-01   1.00800           0
     20439 MEMB     164      PMPE     C28      CTL2    -0.180000       12.0110           0
     20440 MEMB     164      PMPE     H8R      HAL2     0.900000E-01   1.00800           0
     20441 MEMB     164      PMPE     H8S      HAL2     0.900000E-01   1.00800           0
     20442 MEMB     164      PMPE     C29      CG3RC1  -0.900000E-01   12.0110           0
     20443 MEMB     164      PMPE     H9R      HGA1     0.900000E-01   1.00800           0
     20444 MEMB     164      PMPE     C217     CG3C31  -0.180000       12.0110           0
     20445 MEMB     164      PMPE     H17R     HGA2     0.900000E-01   1.00800           0
     20446 MEMB     164      PMPE     H17S     HGA2     0.900000E-01   1.00800           0
     20447 MEMB     164      PMPE     C210     CG3RC1  -0.900000E-01   12.0110           0
     20448 MEMB     164      PMPE     H10R     HGA1     0.900000E-01   1.00800           0
     20449 MEMB     164      PMPE     C211     CTL2    -0.180000       12.0110           0
     20450 MEMB     164      PMPE     H11R     HAL2     0.900000E-01   1.00800           0
     20451 MEMB     164      PMPE     H11S     HAL2     0.900000E-01   1.00800           0
     20452 MEMB     164      PMPE     C212     CTL2    -0.180000       12.0110           0
     20453 MEMB     164      PMPE     H12R     HAL2     0.900000E-01   1.00800           0
     20454 MEMB     164      PMPE     H12S     HAL2     0.900000E-01   1.00800           0
     20455 MEMB     164      PMPE     C213     CTL2    -0.180000       12.0110           0
     20456 MEMB     164      PMPE     H13R     HAL2     0.900000E-01   1.00800           0
     20457 MEMB     164      PMPE     H13S     HAL2     0.900000E-01   1.00800           0
     20458 MEMB     164      PMPE     C214     CTL2    -0.180000       12.0110           0
     20459 MEMB     164      PMPE     H14R     HAL2     0.900000E-01   1.00800           0
     20460 MEMB     164      PMPE     H14S     HAL2     0.900000E-01   1.00800           0
     20461 MEMB     164      PMPE     C215     CTL2    -0.180000       12.0110           0
     20462 MEMB     164      PMPE     H15R     HAL2     0.900000E-01   1.00800           0
     20463 MEMB     164      PMPE     H15S     HAL2     0.900000E-01   1.00800           0
     20464 MEMB     164      PMPE     C216     CTL3    -0.270000       12.0110           0
     20465 MEMB     164      PMPE     H16R     HAL3     0.900000E-01   1.00800           0
     20466 MEMB     164      PMPE     H16S     HAL3     0.900000E-01   1.00800           0
     20467 MEMB     164      PMPE     H16T     HAL3     0.900000E-01   1.00800           0
     20468 MEMB     164      PMPE     C33      CTL2    -0.180000       12.0110           0
     20469 MEMB     164      PMPE     H3X      HAL2     0.900000E-01   1.00800           0
     20470 MEMB     164      PMPE     H3Y      HAL2     0.900000E-01   1.00800           0
     20471 MEMB     164      PMPE     C34      CTL2    -0.180000       12.0110           0
     20472 MEMB     164      PMPE     H4X      HAL2     0.900000E-01   1.00800           0
     20473 MEMB     164      PMPE     H4Y      HAL2     0.900000E-01   1.00800           0
     20474 MEMB     164      PMPE     C35      CTL2    -0.180000       12.0110           0
     20475 MEMB     164      PMPE     H5X      HAL2     0.900000E-01   1.00800           0
     20476 MEMB     164      PMPE     H5Y      HAL2     0.900000E-01   1.00800           0
     20477 MEMB     164      PMPE     C36      CTL2    -0.180000       12.0110           0
     20478 MEMB     164      PMPE     H6X      HAL2     0.900000E-01   1.00800           0
     20479 MEMB     164      PMPE     H6Y      HAL2     0.900000E-01   1.00800           0
     20480 MEMB     164      PMPE     C37      CTL2    -0.180000       12.0110           0
     20481 MEMB     164      PMPE     H7X      HAL2     0.900000E-01   1.00800           0
     20482 MEMB     164      PMPE     H7Y      HAL2     0.900000E-01   1.00800           0
     20483 MEMB     164      PMPE     C38      CTL2    -0.180000       12.0110           0
     20484 MEMB     164      PMPE     H8X      HAL2     0.900000E-01   1.00800           0
     20485 MEMB     164      PMPE     H8Y      HAL2     0.900000E-01   1.00800           0
     20486 MEMB     164      PMPE     C39      CTL2    -0.180000       12.0110           0
     20487 MEMB     164      PMPE     H9X      HAL2     0.900000E-01   1.00800           0
     20488 MEMB     164      PMPE     H9Y      HAL2     0.900000E-01   1.00800           0
     20489 MEMB     164      PMPE     C310     CTL2    -0.180000       12.0110           0
     20490 MEMB     164      PMPE     H10X     HAL2     0.900000E-01   1.00800           0
     20491 MEMB     164      PMPE     H10Y     HAL2     0.900000E-01   1.00800           0
     20492 MEMB     164      PMPE     C311     CTL2    -0.180000       12.0110           0
     20493 MEMB     164      PMPE     H11X     HAL2     0.900000E-01   1.00800           0
     20494 MEMB     164      PMPE     H11Y     HAL2     0.900000E-01   1.00800           0
     20495 MEMB     164      PMPE     C312     CTL2    -0.180000       12.0110           0
     20496 MEMB     164      PMPE     H12X     HAL2     0.900000E-01   1.00800           0
     20497 MEMB     164      PMPE     H12Y     HAL2     0.900000E-01   1.00800           0
     20498 MEMB     164      PMPE     C313     CTL2    -0.180000       12.0110           0
     20499 MEMB     164      PMPE     H13X     HAL2     0.900000E-01   1.00800           0
     20500 MEMB     164      PMPE     H13Y     HAL2     0.900000E-01   1.00800           0
     20501 MEMB     164      PMPE     C314     CTL2    -0.180000       12.0110           0
     20502 MEMB     164      PMPE     H14X     HAL2     0.900000E-01   1.00800           0
     20503 MEMB     164      PMPE     H14Y     HAL2     0.900000E-01   1.00800           0
     20504 MEMB     164      PMPE     C315     CTL2    -0.180000       12.0110           0
     20505 MEMB     164      PMPE     H15X     HAL2     0.900000E-01   1.00800           0
     20506 MEMB     164      PMPE     H15Y     HAL2     0.900000E-01   1.00800           0
     20507 MEMB     164      PMPE     C316     CTL3    -0.270000       12.0110           0
     20508 MEMB     164      PMPE     H16X     HAL3     0.900000E-01   1.00800           0
     20509 MEMB     164      PMPE     H16Y     HAL3     0.900000E-01   1.00800           0
     20510 MEMB     164      PMPE     H16Z     HAL3     0.900000E-01   1.00800           0
     20511 MEMB     165      PMPG     C13      CTL2     0.500000E-01   12.0110           0
     20512 MEMB     165      PMPG     H13A     HAL2     0.900000E-01   1.00800           0
     20513 MEMB     165      PMPG     H13B     HAL2     0.900000E-01   1.00800           0
     20514 MEMB     165      PMPG     OC3      OHL     -0.660000       15.9994           0
     20515 MEMB     165      PMPG     HO3      HOL      0.430000       1.00800           0
     20516 MEMB     165      PMPG     C12      CTL1     0.140000       12.0110           0
     20517 MEMB     165      PMPG     H12A     HAL1     0.900000E-01   1.00800           0
     20518 MEMB     165      PMPG     OC2      OHL     -0.660000       15.9994           0
     20519 MEMB     165      PMPG     HO2      HOL      0.430000       1.00800           0
     20520 MEMB     165      PMPG     C11      CTL2    -0.800000E-01   12.0110           0
     20521 MEMB     165      PMPG     H11A     HAL2     0.900000E-01   1.00800           0
     20522 MEMB     165      PMPG     H11B     HAL2     0.900000E-01   1.00800           0
     20523 MEMB     165      PMPG     P        PL        1.50000       30.9740           0
     20524 MEMB     165      PMPG     O13      O2L     -0.780000       15.9994           0
     20525 MEMB     165      PMPG     O14      O2L     -0.780000       15.9994           0
     20526 MEMB     165      PMPG     O11      OSLP    -0.570000       15.9994           0
     20527 MEMB     165      PMPG     O12      OSLP    -0.570000       15.9994           0
     20528 MEMB     165      PMPG     C1       CTL2    -0.800000E-01   12.0110           0
     20529 MEMB     165      PMPG     HA       HAL2     0.900000E-01   1.00800           0
     20530 MEMB     165      PMPG     HB       HAL2     0.900000E-01   1.00800           0
     20531 MEMB     165      PMPG     C2       CTL1     0.170000       12.0110           0
     20532 MEMB     165      PMPG     HS       HAL1     0.900000E-01   1.00800           0
     20533 MEMB     165      PMPG     O21      OSL     -0.490000       15.9994           0
     20534 MEMB     165      PMPG     C21      CL       0.900000       12.0110           0
     20535 MEMB     165      PMPG     O22      OBL     -0.630000       15.9994           0
     20536 MEMB     165      PMPG     C22      CTL2    -0.220000       12.0110           0
     20537 MEMB     165      PMPG     H2R      HAL2     0.900000E-01   1.00800           0
     20538 MEMB     165      PMPG     H2S      HAL2     0.900000E-01   1.00800           0
     20539 MEMB     165      PMPG     C3       CTL2     0.800000E-01   12.0110           0
     20540 MEMB     165      PMPG     HX       HAL2     0.900000E-01   1.00800           0
     20541 MEMB     165      PMPG     HY       HAL2     0.900000E-01   1.00800           0
     20542 MEMB     165      PMPG     O31      OSL     -0.490000       15.9994           0
     20543 MEMB     165      PMPG     C31      CL       0.900000       12.0110           0
     20544 MEMB     165      PMPG     O32      OBL     -0.630000       15.9994           0
     20545 MEMB     165      PMPG     C32      CTL2    -0.220000       12.0110           0
     20546 MEMB     165      PMPG     H2X      HAL2     0.900000E-01   1.00800           0
     20547 MEMB     165      PMPG     H2Y      HAL2     0.900000E-01   1.00800           0
     20548 MEMB     165      PMPG     C23      CTL2    -0.180000       12.0110           0
     20549 MEMB     165      PMPG     H3R      HAL2     0.900000E-01   1.00800           0
     20550 MEMB     165      PMPG     H3S      HAL2     0.900000E-01   1.00800           0
     20551 MEMB     165      PMPG     C24      CTL2    -0.180000       12.0110           0
     20552 MEMB     165      PMPG     H4R      HAL2     0.900000E-01   1.00800           0
     20553 MEMB     165      PMPG     H4S      HAL2     0.900000E-01   1.00800           0
     20554 MEMB     165      PMPG     C25      CTL2    -0.180000       12.0110           0
     20555 MEMB     165      PMPG     H5R      HAL2     0.900000E-01   1.00800           0
     20556 MEMB     165      PMPG     H5S      HAL2     0.900000E-01   1.00800           0
     20557 MEMB     165      PMPG     C26      CTL2    -0.180000       12.0110           0
     20558 MEMB     165      PMPG     H6R      HAL2     0.900000E-01   1.00800           0
     20559 MEMB     165      PMPG     H6S      HAL2     0.900000E-01   1.00800           0
     20560 MEMB     165      PMPG     C27      CTL2    -0.180000       12.0110           0
     20561 MEMB     165      PMPG     H7R      HAL2     0.900000E-01   1.00800           0
     20562 MEMB     165      PMPG     H7S      HAL2     0.900000E-01   1.00800           0
     20563 MEMB     165      PMPG     C28      CTL2    -0.180000       12.0110           0
     20564 MEMB     165      PMPG     H8R      HAL2     0.900000E-01   1.00800           0
     20565 MEMB     165      PMPG     H8S      HAL2     0.900000E-01   1.00800           0
     20566 MEMB     165      PMPG     C29      CG3RC1  -0.900000E-01   12.0110           0
     20567 MEMB     165      PMPG     H9R      HGA1     0.900000E-01   1.00800           0
     20568 MEMB     165      PMPG     C217     CG3C31  -0.180000       12.0110           0
     20569 MEMB     165      PMPG     H17R     HGA2     0.900000E-01   1.00800           0
     20570 MEMB     165      PMPG     H17S     HGA2     0.900000E-01   1.00800           0
     20571 MEMB     165      PMPG     C210     CG3RC1  -0.900000E-01   12.0110           0
     20572 MEMB     165      PMPG     H10R     HGA1     0.900000E-01   1.00800           0
     20573 MEMB     165      PMPG     C211     CTL2    -0.180000       12.0110           0
     20574 MEMB     165      PMPG     H11R     HAL2     0.900000E-01   1.00800           0
     20575 MEMB     165      PMPG     H11S     HAL2     0.900000E-01   1.00800           0
     20576 MEMB     165      PMPG     C212     CTL2    -0.180000       12.0110           0
     20577 MEMB     165      PMPG     H12R     HAL2     0.900000E-01   1.00800           0
     20578 MEMB     165      PMPG     H12S     HAL2     0.900000E-01   1.00800           0
     20579 MEMB     165      PMPG     C213     CTL2    -0.180000       12.0110           0
     20580 MEMB     165      PMPG     H13R     HAL2     0.900000E-01   1.00800           0
     20581 MEMB     165      PMPG     H13S     HAL2     0.900000E-01   1.00800           0
     20582 MEMB     165      PMPG     C214     CTL2    -0.180000       12.0110           0
     20583 MEMB     165      PMPG     H14R     HAL2     0.900000E-01   1.00800           0
     20584 MEMB     165      PMPG     H14S     HAL2     0.900000E-01   1.00800           0
     20585 MEMB     165      PMPG     C215     CTL2    -0.180000       12.0110           0
     20586 MEMB     165      PMPG     H15R     HAL2     0.900000E-01   1.00800           0
     20587 MEMB     165      PMPG     H15S     HAL2     0.900000E-01   1.00800           0
     20588 MEMB     165      PMPG     C216     CTL3    -0.270000       12.0110           0
     20589 MEMB     165      PMPG     H16R     HAL3     0.900000E-01   1.00800           0
     20590 MEMB     165      PMPG     H16S     HAL3     0.900000E-01   1.00800           0
     20591 MEMB     165      PMPG     H16T     HAL3     0.900000E-01   1.00800           0
     20592 MEMB     165      PMPG     C33      CTL2    -0.180000       12.0110           0
     20593 MEMB     165      PMPG     H3X      HAL2     0.900000E-01   1.00800           0
     20594 MEMB     165      PMPG     H3Y      HAL2     0.900000E-01   1.00800           0
     20595 MEMB     165      PMPG     C34      CTL2    -0.180000       12.0110           0
     20596 MEMB     165      PMPG     H4X      HAL2     0.900000E-01   1.00800           0
     20597 MEMB     165      PMPG     H4Y      HAL2     0.900000E-01   1.00800           0
     20598 MEMB     165      PMPG     C35      CTL2    -0.180000       12.0110           0
     20599 MEMB     165      PMPG     H5X      HAL2     0.900000E-01   1.00800           0
     20600 MEMB     165      PMPG     H5Y      HAL2     0.900000E-01   1.00800           0
     20601 MEMB     165      PMPG     C36      CTL2    -0.180000       12.0110           0
     20602 MEMB     165      PMPG     H6X      HAL2     0.900000E-01   1.00800           0
     20603 MEMB     165      PMPG     H6Y      HAL2     0.900000E-01   1.00800           0
     20604 MEMB     165      PMPG     C37      CTL2    -0.180000       12.0110           0
     20605 MEMB     165      PMPG     H7X      HAL2     0.900000E-01   1.00800           0
     20606 MEMB     165      PMPG     H7Y      HAL2     0.900000E-01   1.00800           0
     20607 MEMB     165      PMPG     C38      CTL2    -0.180000       12.0110           0
     20608 MEMB     165      PMPG     H8X      HAL2     0.900000E-01   1.00800           0
     20609 MEMB     165      PMPG     H8Y      HAL2     0.900000E-01   1.00800           0
     20610 MEMB     165      PMPG     C39      CTL2    -0.180000       12.0110           0
     20611 MEMB     165      PMPG     H9X      HAL2     0.900000E-01   1.00800           0
     20612 MEMB     165      PMPG     H9Y      HAL2     0.900000E-01   1.00800           0
     20613 MEMB     165      PMPG     C310     CTL2    -0.180000       12.0110           0
     20614 MEMB     165      PMPG     H10X     HAL2     0.900000E-01   1.00800           0
     20615 MEMB     165      PMPG     H10Y     HAL2     0.900000E-01   1.00800           0
     20616 MEMB     165      PMPG     C311     CTL2    -0.180000       12.0110           0
     20617 MEMB     165      PMPG     H11X     HAL2     0.900000E-01   1.00800           0
     20618 MEMB     165      PMPG     H11Y     HAL2     0.900000E-01   1.00800           0
     20619 MEMB     165      PMPG     C312     CTL2    -0.180000       12.0110           0
     20620 MEMB     165      PMPG     H12X     HAL2     0.900000E-01   1.00800           0
     20621 MEMB     165      PMPG     H12Y     HAL2     0.900000E-01   1.00800           0
     20622 MEMB     165      PMPG     C313     CTL2    -0.180000       12.0110           0
     20623 MEMB     165      PMPG     H13X     HAL2     0.900000E-01   1.00800           0
     20624 MEMB     165      PMPG     H13Y     HAL2     0.900000E-01   1.00800           0
     20625 MEMB     165      PMPG     C314     CTL2    -0.180000       12.0110           0
     20626 MEMB     165      PMPG     H14X     HAL2     0.900000E-01   1.00800           0
     20627 MEMB     165      PMPG     H14Y     HAL2     0.900000E-01   1.00800           0
     20628 MEMB     165      PMPG     C315     CTL2    -0.180000       12.0110           0
     20629 MEMB     165      PMPG     H15X     HAL2     0.900000E-01   1.00800           0
     20630 MEMB     165      PMPG     H15Y     HAL2     0.900000E-01   1.00800           0
     20631 MEMB     165      PMPG     C316     CTL3    -0.270000       12.0110           0
     20632 MEMB     165      PMPG     H16X     HAL3     0.900000E-01   1.00800           0
     20633 MEMB     165      PMPG     H16Y     HAL3     0.900000E-01   1.00800           0
     20634 MEMB     165      PMPG     H16Z     HAL3     0.900000E-01   1.00800           0
     20635 MEMB     166      QMPE     N        NH3L    -0.300000       14.0070           0
     20636 MEMB     166      QMPE     HN1      HCL      0.330000       1.00800           0
     20637 MEMB     166      QMPE     HN2      HCL      0.330000       1.00800           0
     20638 MEMB     166      QMPE     HN3      HCL      0.330000       1.00800           0
     20639 MEMB     166      QMPE     C12      CTL2     0.130000       12.0110           0
     20640 MEMB     166      QMPE     H12A     HAL2     0.900000E-01   1.00800           0
     20641 MEMB     166      QMPE     H12B     HAL2     0.900000E-01   1.00800           0
     20642 MEMB     166      QMPE     C11      CTL2    -0.800000E-01   12.0110           0
     20643 MEMB     166      QMPE     H11A     HAL2     0.900000E-01   1.00800           0
     20644 MEMB     166      QMPE     H11B     HAL2     0.900000E-01   1.00800           0
     20645 MEMB     166      QMPE     P        PL        1.50000       30.9740           0
     20646 MEMB     166      QMPE     O13      O2L     -0.780000       15.9994           0
     20647 MEMB     166      QMPE     O14      O2L     -0.780000       15.9994           0
     20648 MEMB     166      QMPE     O11      OSLP    -0.570000       15.9994           0
     20649 MEMB     166      QMPE     O12      OSLP    -0.570000       15.9994           0
     20650 MEMB     166      QMPE     C1       CTL2    -0.800000E-01   12.0110           0
     20651 MEMB     166      QMPE     HA       HAL2     0.900000E-01   1.00800           0
     20652 MEMB     166      QMPE     HB       HAL2     0.900000E-01   1.00800           0
     20653 MEMB     166      QMPE     C2       CTL1     0.170000       12.0110           0
     20654 MEMB     166      QMPE     HS       HAL1     0.900000E-01   1.00800           0
     20655 MEMB     166      QMPE     O21      OSL     -0.490000       15.9994           0
     20656 MEMB     166      QMPE     C21      CL       0.900000       12.0110           0
     20657 MEMB     166      QMPE     O22      OBL     -0.630000       15.9994           0
     20658 MEMB     166      QMPE     C22      CTL2    -0.220000       12.0110           0
     20659 MEMB     166      QMPE     H2R      HAL2     0.900000E-01   1.00800           0
     20660 MEMB     166      QMPE     H2S      HAL2     0.900000E-01   1.00800           0
     20661 MEMB     166      QMPE     C3       CTL2     0.800000E-01   12.0110           0
     20662 MEMB     166      QMPE     HX       HAL2     0.900000E-01   1.00800           0
     20663 MEMB     166      QMPE     HY       HAL2     0.900000E-01   1.00800           0
     20664 MEMB     166      QMPE     O31      OSL     -0.490000       15.9994           0
     20665 MEMB     166      QMPE     C31      CL       0.900000       12.0110           0
     20666 MEMB     166      QMPE     O32      OBL     -0.630000       15.9994           0
     20667 MEMB     166      QMPE     C32      CTL2    -0.220000       12.0110           0
     20668 MEMB     166      QMPE     H2X      HAL2     0.900000E-01   1.00800           0
     20669 MEMB     166      QMPE     H2Y      HAL2     0.900000E-01   1.00800           0
     20670 MEMB     166      QMPE     C23      CTL2    -0.180000       12.0110           0
     20671 MEMB     166      QMPE     H3R      HAL2     0.900000E-01   1.00800           0
     20672 MEMB     166      QMPE     H3S      HAL2     0.900000E-01   1.00800           0
     20673 MEMB     166      QMPE     C24      CTL2    -0.180000       12.0110           0
     20674 MEMB     166      QMPE     H4R      HAL2     0.900000E-01   1.00800           0
     20675 MEMB     166      QMPE     H4S      HAL2     0.900000E-01   1.00800           0
     20676 MEMB     166      QMPE     C25      CTL2    -0.180000       12.0110           0
     20677 MEMB     166      QMPE     H5R      HAL2     0.900000E-01   1.00800           0
     20678 MEMB     166      QMPE     H5S      HAL2     0.900000E-01   1.00800           0
     20679 MEMB     166      QMPE     C26      CTL2    -0.180000       12.0110           0
     20680 MEMB     166      QMPE     H6R      HAL2     0.900000E-01   1.00800           0
     20681 MEMB     166      QMPE     H6S      HAL2     0.900000E-01   1.00800           0
     20682 MEMB     166      QMPE     C27      CTL2    -0.180000       12.0110           0
     20683 MEMB     166      QMPE     H7R      HAL2     0.900000E-01   1.00800           0
     20684 MEMB     166      QMPE     H7S      HAL2     0.900000E-01   1.00800           0
     20685 MEMB     166      QMPE     C28      CTL2    -0.180000       12.0110           0
     20686 MEMB     166      QMPE     H8R      HAL2     0.900000E-01   1.00800           0
     20687 MEMB     166      QMPE     H8S      HAL2     0.900000E-01   1.00800           0
     20688 MEMB     166      QMPE     C29      CG3RC1  -0.900000E-01   12.0110           0
     20689 MEMB     166      QMPE     H9R      HGA1     0.900000E-01   1.00800           0
     20690 MEMB     166      QMPE     C217     CG3C31  -0.180000       12.0110           0
     20691 MEMB     166      QMPE     H17R     HGA2     0.900000E-01   1.00800           0
     20692 MEMB     166      QMPE     H17S     HGA2     0.900000E-01   1.00800           0
     20693 MEMB     166      QMPE     C210     CG3RC1  -0.900000E-01   12.0110           0
     20694 MEMB     166      QMPE     H10R     HGA1     0.900000E-01   1.00800           0
     20695 MEMB     166      QMPE     C211     CTL2    -0.180000       12.0110           0
     20696 MEMB     166      QMPE     H11R     HAL2     0.900000E-01   1.00800           0
     20697 MEMB     166      QMPE     H11S     HAL2     0.900000E-01   1.00800           0
     20698 MEMB     166      QMPE     C212     CTL2    -0.180000       12.0110           0
     20699 MEMB     166      QMPE     H12R     HAL2     0.900000E-01   1.00800           0
     20700 MEMB     166      QMPE     H12S     HAL2     0.900000E-01   1.00800           0
     20701 MEMB     166      QMPE     C213     CTL2    -0.180000       12.0110           0
     20702 MEMB     166      QMPE     H13R     HAL2     0.900000E-01   1.00800           0
     20703 MEMB     166      QMPE     H13S     HAL2     0.900000E-01   1.00800           0
     20704 MEMB     166      QMPE     C214     CTL2    -0.180000       12.0110           0
     20705 MEMB     166      QMPE     H14R     HAL2     0.900000E-01   1.00800           0
     20706 MEMB     166      QMPE     H14S     HAL2     0.900000E-01   1.00800           0
     20707 MEMB     166      QMPE     C215     CTL2    -0.180000       12.0110           0
     20708 MEMB     166      QMPE     H15R     HAL2     0.900000E-01   1.00800           0
     20709 MEMB     166      QMPE     H15S     HAL2     0.900000E-01   1.00800           0
     20710 MEMB     166      QMPE     C216     CTL3    -0.270000       12.0110           0
     20711 MEMB     166      QMPE     H16R     HAL3     0.900000E-01   1.00800           0
     20712 MEMB     166      QMPE     H16S     HAL3     0.900000E-01   1.00800           0
     20713 MEMB     166      QMPE     H16T     HAL3     0.900000E-01   1.00800           0
     20714 MEMB     166      QMPE     C33      CTL2    -0.180000       12.0110           0
     20715 MEMB     166      QMPE     H3X      HAL2     0.900000E-01   1.00800           0
     20716 MEMB     166      QMPE     H3Y      HAL2     0.900000E-01   1.00800           0
     20717 MEMB     166      QMPE     C34      CTL2    -0.180000       12.0110           0
     20718 MEMB     166      QMPE     H4X      HAL2     0.900000E-01   1.00800           0
     20719 MEMB     166      QMPE     H4Y      HAL2     0.900000E-01   1.00800           0
     20720 MEMB     166      QMPE     C35      CTL2    -0.180000       12.0110           0
     20721 MEMB     166      QMPE     H5X      HAL2     0.900000E-01   1.00800           0
     20722 MEMB     166      QMPE     H5Y      HAL2     0.900000E-01   1.00800           0
     20723 MEMB     166      QMPE     C36      CTL2    -0.180000       12.0110           0
     20724 MEMB     166      QMPE     H6X      HAL2     0.900000E-01   1.00800           0
     20725 MEMB     166      QMPE     H6Y      HAL2     0.900000E-01   1.00800           0
     20726 MEMB     166      QMPE     C37      CTL2    -0.180000       12.0110           0
     20727 MEMB     166      QMPE     H7X      HAL2     0.900000E-01   1.00800           0
     20728 MEMB     166      QMPE     H7Y      HAL2     0.900000E-01   1.00800           0
     20729 MEMB     166      QMPE     C38      CTL2    -0.180000       12.0110           0
     20730 MEMB     166      QMPE     H8X      HAL2     0.900000E-01   1.00800           0
     20731 MEMB     166      QMPE     H8Y      HAL2     0.900000E-01   1.00800           0
     20732 MEMB     166      QMPE     C39      CTL2    -0.180000       12.0110           0
     20733 MEMB     166      QMPE     H9X      HAL2     0.900000E-01   1.00800           0
     20734 MEMB     166      QMPE     H9Y      HAL2     0.900000E-01   1.00800           0
     20735 MEMB     166      QMPE     C310     CTL2    -0.180000       12.0110           0
     20736 MEMB     166      QMPE     H10X     HAL2     0.900000E-01   1.00800           0
     20737 MEMB     166      QMPE     H10Y     HAL2     0.900000E-01   1.00800           0
     20738 MEMB     166      QMPE     C311     CTL2    -0.180000       12.0110           0
     20739 MEMB     166      QMPE     H11X     HAL2     0.900000E-01   1.00800           0
     20740 MEMB     166      QMPE     H11Y     HAL2     0.900000E-01   1.00800           0
     20741 MEMB     166      QMPE     C312     CTL2    -0.180000       12.0110           0
     20742 MEMB     166      QMPE     H12X     HAL2     0.900000E-01   1.00800           0
     20743 MEMB     166      QMPE     H12Y     HAL2     0.900000E-01   1.00800           0
     20744 MEMB     166      QMPE     C313     CTL2    -0.180000       12.0110           0
     20745 MEMB     166      QMPE     H13X     HAL2     0.900000E-01   1.00800           0
     20746 MEMB     166      QMPE     H13Y     HAL2     0.900000E-01   1.00800           0
     20747 MEMB     166      QMPE     C314     CTL2    -0.180000       12.0110           0
     20748 MEMB     166      QMPE     H14X     HAL2     0.900000E-01   1.00800           0
     20749 MEMB     166      QMPE     H14Y     HAL2     0.900000E-01   1.00800           0
     20750 MEMB     166      QMPE     C315     CTL3    -0.270000       12.0110           0
     20751 MEMB     166      QMPE     H15X     HAL3     0.900000E-01   1.00800           0
     20752 MEMB     166      QMPE     H15Y     HAL3     0.900000E-01   1.00800           0
     20753 MEMB     166      QMPE     H15Z     HAL3     0.900000E-01   1.00800           0
     20754 MEMB     167      PMPE     N        NH3L    -0.300000       14.0070           0
     20755 MEMB     167      PMPE     HN1      HCL      0.330000       1.00800           0
     20756 MEMB     167      PMPE     HN2      HCL      0.330000       1.00800           0
     20757 MEMB     167      PMPE     HN3      HCL      0.330000       1.00800           0
     20758 MEMB     167      PMPE     C12      CTL2     0.130000       12.0110           0
     20759 MEMB     167      PMPE     H12A     HAL2     0.900000E-01   1.00800           0
     20760 MEMB     167      PMPE     H12B     HAL2     0.900000E-01   1.00800           0
     20761 MEMB     167      PMPE     C11      CTL2    -0.800000E-01   12.0110           0
     20762 MEMB     167      PMPE     H11A     HAL2     0.900000E-01   1.00800           0
     20763 MEMB     167      PMPE     H11B     HAL2     0.900000E-01   1.00800           0
     20764 MEMB     167      PMPE     P        PL        1.50000       30.9740           0
     20765 MEMB     167      PMPE     O13      O2L     -0.780000       15.9994           0
     20766 MEMB     167      PMPE     O14      O2L     -0.780000       15.9994           0
     20767 MEMB     167      PMPE     O11      OSLP    -0.570000       15.9994           0
     20768 MEMB     167      PMPE     O12      OSLP    -0.570000       15.9994           0
     20769 MEMB     167      PMPE     C1       CTL2    -0.800000E-01   12.0110           0
     20770 MEMB     167      PMPE     HA       HAL2     0.900000E-01   1.00800           0
     20771 MEMB     167      PMPE     HB       HAL2     0.900000E-01   1.00800           0
     20772 MEMB     167      PMPE     C2       CTL1     0.170000       12.0110           0
     20773 MEMB     167      PMPE     HS       HAL1     0.900000E-01   1.00800           0
     20774 MEMB     167      PMPE     O21      OSL     -0.490000       15.9994           0
     20775 MEMB     167      PMPE     C21      CL       0.900000       12.0110           0
     20776 MEMB     167      PMPE     O22      OBL     -0.630000       15.9994           0
     20777 MEMB     167      PMPE     C22      CTL2    -0.220000       12.0110           0
     20778 MEMB     167      PMPE     H2R      HAL2     0.900000E-01   1.00800           0
     20779 MEMB     167      PMPE     H2S      HAL2     0.900000E-01   1.00800           0
     20780 MEMB     167      PMPE     C3       CTL2     0.800000E-01   12.0110           0
     20781 MEMB     167      PMPE     HX       HAL2     0.900000E-01   1.00800           0
     20782 MEMB     167      PMPE     HY       HAL2     0.900000E-01   1.00800           0
     20783 MEMB     167      PMPE     O31      OSL     -0.490000       15.9994           0
     20784 MEMB     167      PMPE     C31      CL       0.900000       12.0110           0
     20785 MEMB     167      PMPE     O32      OBL     -0.630000       15.9994           0
     20786 MEMB     167      PMPE     C32      CTL2    -0.220000       12.0110           0
     20787 MEMB     167      PMPE     H2X      HAL2     0.900000E-01   1.00800           0
     20788 MEMB     167      PMPE     H2Y      HAL2     0.900000E-01   1.00800           0
     20789 MEMB     167      PMPE     C23      CTL2    -0.180000       12.0110           0
     20790 MEMB     167      PMPE     H3R      HAL2     0.900000E-01   1.00800           0
     20791 MEMB     167      PMPE     H3S      HAL2     0.900000E-01   1.00800           0
     20792 MEMB     167      PMPE     C24      CTL2    -0.180000       12.0110           0
     20793 MEMB     167      PMPE     H4R      HAL2     0.900000E-01   1.00800           0
     20794 MEMB     167      PMPE     H4S      HAL2     0.900000E-01   1.00800           0
     20795 MEMB     167      PMPE     C25      CTL2    -0.180000       12.0110           0
     20796 MEMB     167      PMPE     H5R      HAL2     0.900000E-01   1.00800           0
     20797 MEMB     167      PMPE     H5S      HAL2     0.900000E-01   1.00800           0
     20798 MEMB     167      PMPE     C26      CTL2    -0.180000       12.0110           0
     20799 MEMB     167      PMPE     H6R      HAL2     0.900000E-01   1.00800           0
     20800 MEMB     167      PMPE     H6S      HAL2     0.900000E-01   1.00800           0
     20801 MEMB     167      PMPE     C27      CTL2    -0.180000       12.0110           0
     20802 MEMB     167      PMPE     H7R      HAL2     0.900000E-01   1.00800           0
     20803 MEMB     167      PMPE     H7S      HAL2     0.900000E-01   1.00800           0
     20804 MEMB     167      PMPE     C28      CTL2    -0.180000       12.0110           0
     20805 MEMB     167      PMPE     H8R      HAL2     0.900000E-01   1.00800           0
     20806 MEMB     167      PMPE     H8S      HAL2     0.900000E-01   1.00800           0
     20807 MEMB     167      PMPE     C29      CG3RC1  -0.900000E-01   12.0110           0
     20808 MEMB     167      PMPE     H9R      HGA1     0.900000E-01   1.00800           0
     20809 MEMB     167      PMPE     C217     CG3C31  -0.180000       12.0110           0
     20810 MEMB     167      PMPE     H17R     HGA2     0.900000E-01   1.00800           0
     20811 MEMB     167      PMPE     H17S     HGA2     0.900000E-01   1.00800           0
     20812 MEMB     167      PMPE     C210     CG3RC1  -0.900000E-01   12.0110           0
     20813 MEMB     167      PMPE     H10R     HGA1     0.900000E-01   1.00800           0
     20814 MEMB     167      PMPE     C211     CTL2    -0.180000       12.0110           0
     20815 MEMB     167      PMPE     H11R     HAL2     0.900000E-01   1.00800           0
     20816 MEMB     167      PMPE     H11S     HAL2     0.900000E-01   1.00800           0
     20817 MEMB     167      PMPE     C212     CTL2    -0.180000       12.0110           0
     20818 MEMB     167      PMPE     H12R     HAL2     0.900000E-01   1.00800           0
     20819 MEMB     167      PMPE     H12S     HAL2     0.900000E-01   1.00800           0
     20820 MEMB     167      PMPE     C213     CTL2    -0.180000       12.0110           0
     20821 MEMB     167      PMPE     H13R     HAL2     0.900000E-01   1.00800           0
     20822 MEMB     167      PMPE     H13S     HAL2     0.900000E-01   1.00800           0
     20823 MEMB     167      PMPE     C214     CTL2    -0.180000       12.0110           0
     20824 MEMB     167      PMPE     H14R     HAL2     0.900000E-01   1.00800           0
     20825 MEMB     167      PMPE     H14S     HAL2     0.900000E-01   1.00800           0
     20826 MEMB     167      PMPE     C215     CTL2    -0.180000       12.0110           0
     20827 MEMB     167      PMPE     H15R     HAL2     0.900000E-01   1.00800           0
     20828 MEMB     167      PMPE     H15S     HAL2     0.900000E-01   1.00800           0
     20829 MEMB     167      PMPE     C216     CTL3    -0.270000       12.0110           0
     20830 MEMB     167      PMPE     H16R     HAL3     0.900000E-01   1.00800           0
     20831 MEMB     167      PMPE     H16S     HAL3     0.900000E-01   1.00800           0
     20832 MEMB     167      PMPE     H16T     HAL3     0.900000E-01   1.00800           0
     20833 MEMB     167      PMPE     C33      CTL2    -0.180000       12.0110           0
     20834 MEMB     167      PMPE     H3X      HAL2     0.900000E-01   1.00800           0
     20835 MEMB     167      PMPE     H3Y      HAL2     0.900000E-01   1.00800           0
     20836 MEMB     167      PMPE     C34      CTL2    -0.180000       12.0110           0
     20837 MEMB     167      PMPE     H4X      HAL2     0.900000E-01   1.00800           0
     20838 MEMB     167      PMPE     H4Y      HAL2     0.900000E-01   1.00800           0
     20839 MEMB     167      PMPE     C35      CTL2    -0.180000       12.0110           0
     20840 MEMB     167      PMPE     H5X      HAL2     0.900000E-01   1.00800           0
     20841 MEMB     167      PMPE     H5Y      HAL2     0.900000E-01   1.00800           0
     20842 MEMB     167      PMPE     C36      CTL2    -0.180000       12.0110           0
     20843 MEMB     167      PMPE     H6X      HAL2     0.900000E-01   1.00800           0
     20844 MEMB     167      PMPE     H6Y      HAL2     0.900000E-01   1.00800           0
     20845 MEMB     167      PMPE     C37      CTL2    -0.180000       12.0110           0
     20846 MEMB     167      PMPE     H7X      HAL2     0.900000E-01   1.00800           0
     20847 MEMB     167      PMPE     H7Y      HAL2     0.900000E-01   1.00800           0
     20848 MEMB     167      PMPE     C38      CTL2    -0.180000       12.0110           0
     20849 MEMB     167      PMPE     H8X      HAL2     0.900000E-01   1.00800           0
     20850 MEMB     167      PMPE     H8Y      HAL2     0.900000E-01   1.00800           0
     20851 MEMB     167      PMPE     C39      CTL2    -0.180000       12.0110           0
     20852 MEMB     167      PMPE     H9X      HAL2     0.900000E-01   1.00800           0
     20853 MEMB     167      PMPE     H9Y      HAL2     0.900000E-01   1.00800           0
     20854 MEMB     167      PMPE     C310     CTL2    -0.180000       12.0110           0
     20855 MEMB     167      PMPE     H10X     HAL2     0.900000E-01   1.00800           0
     20856 MEMB     167      PMPE     H10Y     HAL2     0.900000E-01   1.00800           0
     20857 MEMB     167      PMPE     C311     CTL2    -0.180000       12.0110           0
     20858 MEMB     167      PMPE     H11X     HAL2     0.900000E-01   1.00800           0
     20859 MEMB     167      PMPE     H11Y     HAL2     0.900000E-01   1.00800           0
     20860 MEMB     167      PMPE     C312     CTL2    -0.180000       12.0110           0
     20861 MEMB     167      PMPE     H12X     HAL2     0.900000E-01   1.00800           0
     20862 MEMB     167      PMPE     H12Y     HAL2     0.900000E-01   1.00800           0
     20863 MEMB     167      PMPE     C313     CTL2    -0.180000       12.0110           0
     20864 MEMB     167      PMPE     H13X     HAL2     0.900000E-01   1.00800           0
     20865 MEMB     167      PMPE     H13Y     HAL2     0.900000E-01   1.00800           0
     20866 MEMB     167      PMPE     C314     CTL2    -0.180000       12.0110           0
     20867 MEMB     167      PMPE     H14X     HAL2     0.900000E-01   1.00800           0
     20868 MEMB     167      PMPE     H14Y     HAL2     0.900000E-01   1.00800           0
     20869 MEMB     167      PMPE     C315     CTL2    -0.180000       12.0110           0
     20870 MEMB     167      PMPE     H15X     HAL2     0.900000E-01   1.00800           0
     20871 MEMB     167      PMPE     H15Y     HAL2     0.900000E-01   1.00800           0
     20872 MEMB     167      PMPE     C316     CTL3    -0.270000       12.0110           0
     20873 MEMB     167      PMPE     H16X     HAL3     0.900000E-01   1.00800           0
     20874 MEMB     167      PMPE     H16Y     HAL3     0.900000E-01   1.00800           0
     20875 MEMB     167      PMPE     H16Z     HAL3     0.900000E-01   1.00800           0
     20876 MEMB     168      PMPE     N        NH3L    -0.300000       14.0070           0
     20877 MEMB     168      PMPE     HN1      HCL      0.330000       1.00800           0
     20878 MEMB     168      PMPE     HN2      HCL      0.330000       1.00800           0
     20879 MEMB     168      PMPE     HN3      HCL      0.330000       1.00800           0
     20880 MEMB     168      PMPE     C12      CTL2     0.130000       12.0110           0
     20881 MEMB     168      PMPE     H12A     HAL2     0.900000E-01   1.00800           0
     20882 MEMB     168      PMPE     H12B     HAL2     0.900000E-01   1.00800           0
     20883 MEMB     168      PMPE     C11      CTL2    -0.800000E-01   12.0110           0
     20884 MEMB     168      PMPE     H11A     HAL2     0.900000E-01   1.00800           0
     20885 MEMB     168      PMPE     H11B     HAL2     0.900000E-01   1.00800           0
     20886 MEMB     168      PMPE     P        PL        1.50000       30.9740           0
     20887 MEMB     168      PMPE     O13      O2L     -0.780000       15.9994           0
     20888 MEMB     168      PMPE     O14      O2L     -0.780000       15.9994           0
     20889 MEMB     168      PMPE     O11      OSLP    -0.570000       15.9994           0
     20890 MEMB     168      PMPE     O12      OSLP    -0.570000       15.9994           0
     20891 MEMB     168      PMPE     C1       CTL2    -0.800000E-01   12.0110           0
     20892 MEMB     168      PMPE     HA       HAL2     0.900000E-01   1.00800           0
     20893 MEMB     168      PMPE     HB       HAL2     0.900000E-01   1.00800           0
     20894 MEMB     168      PMPE     C2       CTL1     0.170000       12.0110           0
     20895 MEMB     168      PMPE     HS       HAL1     0.900000E-01   1.00800           0
     20896 MEMB     168      PMPE     O21      OSL     -0.490000       15.9994           0
     20897 MEMB     168      PMPE     C21      CL       0.900000       12.0110           0
     20898 MEMB     168      PMPE     O22      OBL     -0.630000       15.9994           0
     20899 MEMB     168      PMPE     C22      CTL2    -0.220000       12.0110           0
     20900 MEMB     168      PMPE     H2R      HAL2     0.900000E-01   1.00800           0
     20901 MEMB     168      PMPE     H2S      HAL2     0.900000E-01   1.00800           0
     20902 MEMB     168      PMPE     C3       CTL2     0.800000E-01   12.0110           0
     20903 MEMB     168      PMPE     HX       HAL2     0.900000E-01   1.00800           0
     20904 MEMB     168      PMPE     HY       HAL2     0.900000E-01   1.00800           0
     20905 MEMB     168      PMPE     O31      OSL     -0.490000       15.9994           0
     20906 MEMB     168      PMPE     C31      CL       0.900000       12.0110           0
     20907 MEMB     168      PMPE     O32      OBL     -0.630000       15.9994           0
     20908 MEMB     168      PMPE     C32      CTL2    -0.220000       12.0110           0
     20909 MEMB     168      PMPE     H2X      HAL2     0.900000E-01   1.00800           0
     20910 MEMB     168      PMPE     H2Y      HAL2     0.900000E-01   1.00800           0
     20911 MEMB     168      PMPE     C23      CTL2    -0.180000       12.0110           0
     20912 MEMB     168      PMPE     H3R      HAL2     0.900000E-01   1.00800           0
     20913 MEMB     168      PMPE     H3S      HAL2     0.900000E-01   1.00800           0
     20914 MEMB     168      PMPE     C24      CTL2    -0.180000       12.0110           0
     20915 MEMB     168      PMPE     H4R      HAL2     0.900000E-01   1.00800           0
     20916 MEMB     168      PMPE     H4S      HAL2     0.900000E-01   1.00800           0
     20917 MEMB     168      PMPE     C25      CTL2    -0.180000       12.0110           0
     20918 MEMB     168      PMPE     H5R      HAL2     0.900000E-01   1.00800           0
     20919 MEMB     168      PMPE     H5S      HAL2     0.900000E-01   1.00800           0
     20920 MEMB     168      PMPE     C26      CTL2    -0.180000       12.0110           0
     20921 MEMB     168      PMPE     H6R      HAL2     0.900000E-01   1.00800           0
     20922 MEMB     168      PMPE     H6S      HAL2     0.900000E-01   1.00800           0
     20923 MEMB     168      PMPE     C27      CTL2    -0.180000       12.0110           0
     20924 MEMB     168      PMPE     H7R      HAL2     0.900000E-01   1.00800           0
     20925 MEMB     168      PMPE     H7S      HAL2     0.900000E-01   1.00800           0
     20926 MEMB     168      PMPE     C28      CTL2    -0.180000       12.0110           0
     20927 MEMB     168      PMPE     H8R      HAL2     0.900000E-01   1.00800           0
     20928 MEMB     168      PMPE     H8S      HAL2     0.900000E-01   1.00800           0
     20929 MEMB     168      PMPE     C29      CG3RC1  -0.900000E-01   12.0110           0
     20930 MEMB     168      PMPE     H9R      HGA1     0.900000E-01   1.00800           0
     20931 MEMB     168      PMPE     C217     CG3C31  -0.180000       12.0110           0
     20932 MEMB     168      PMPE     H17R     HGA2     0.900000E-01   1.00800           0
     20933 MEMB     168      PMPE     H17S     HGA2     0.900000E-01   1.00800           0
     20934 MEMB     168      PMPE     C210     CG3RC1  -0.900000E-01   12.0110           0
     20935 MEMB     168      PMPE     H10R     HGA1     0.900000E-01   1.00800           0
     20936 MEMB     168      PMPE     C211     CTL2    -0.180000       12.0110           0
     20937 MEMB     168      PMPE     H11R     HAL2     0.900000E-01   1.00800           0
     20938 MEMB     168      PMPE     H11S     HAL2     0.900000E-01   1.00800           0
     20939 MEMB     168      PMPE     C212     CTL2    -0.180000       12.0110           0
     20940 MEMB     168      PMPE     H12R     HAL2     0.900000E-01   1.00800           0
     20941 MEMB     168      PMPE     H12S     HAL2     0.900000E-01   1.00800           0
     20942 MEMB     168      PMPE     C213     CTL2    -0.180000       12.0110           0
     20943 MEMB     168      PMPE     H13R     HAL2     0.900000E-01   1.00800           0
     20944 MEMB     168      PMPE     H13S     HAL2     0.900000E-01   1.00800           0
     20945 MEMB     168      PMPE     C214     CTL2    -0.180000       12.0110           0
     20946 MEMB     168      PMPE     H14R     HAL2     0.900000E-01   1.00800           0
     20947 MEMB     168      PMPE     H14S     HAL2     0.900000E-01   1.00800           0
     20948 MEMB     168      PMPE     C215     CTL2    -0.180000       12.0110           0
     20949 MEMB     168      PMPE     H15R     HAL2     0.900000E-01   1.00800           0
     20950 MEMB     168      PMPE     H15S     HAL2     0.900000E-01   1.00800           0
     20951 MEMB     168      PMPE     C216     CTL3    -0.270000       12.0110           0
     20952 MEMB     168      PMPE     H16R     HAL3     0.900000E-01   1.00800           0
     20953 MEMB     168      PMPE     H16S     HAL3     0.900000E-01   1.00800           0
     20954 MEMB     168      PMPE     H16T     HAL3     0.900000E-01   1.00800           0
     20955 MEMB     168      PMPE     C33      CTL2    -0.180000       12.0110           0
     20956 MEMB     168      PMPE     H3X      HAL2     0.900000E-01   1.00800           0
     20957 MEMB     168      PMPE     H3Y      HAL2     0.900000E-01   1.00800           0
     20958 MEMB     168      PMPE     C34      CTL2    -0.180000       12.0110           0
     20959 MEMB     168      PMPE     H4X      HAL2     0.900000E-01   1.00800           0
     20960 MEMB     168      PMPE     H4Y      HAL2     0.900000E-01   1.00800           0
     20961 MEMB     168      PMPE     C35      CTL2    -0.180000       12.0110           0
     20962 MEMB     168      PMPE     H5X      HAL2     0.900000E-01   1.00800           0
     20963 MEMB     168      PMPE     H5Y      HAL2     0.900000E-01   1.00800           0
     20964 MEMB     168      PMPE     C36      CTL2    -0.180000       12.0110           0
     20965 MEMB     168      PMPE     H6X      HAL2     0.900000E-01   1.00800           0
     20966 MEMB     168      PMPE     H6Y      HAL2     0.900000E-01   1.00800           0
     20967 MEMB     168      PMPE     C37      CTL2    -0.180000       12.0110           0
     20968 MEMB     168      PMPE     H7X      HAL2     0.900000E-01   1.00800           0
     20969 MEMB     168      PMPE     H7Y      HAL2     0.900000E-01   1.00800           0
     20970 MEMB     168      PMPE     C38      CTL2    -0.180000       12.0110           0
     20971 MEMB     168      PMPE     H8X      HAL2     0.900000E-01   1.00800           0
     20972 MEMB     168      PMPE     H8Y      HAL2     0.900000E-01   1.00800           0
     20973 MEMB     168      PMPE     C39      CTL2    -0.180000       12.0110           0
     20974 MEMB     168      PMPE     H9X      HAL2     0.900000E-01   1.00800           0
     20975 MEMB     168      PMPE     H9Y      HAL2     0.900000E-01   1.00800           0
     20976 MEMB     168      PMPE     C310     CTL2    -0.180000       12.0110           0
     20977 MEMB     168      PMPE     H10X     HAL2     0.900000E-01   1.00800           0
     20978 MEMB     168      PMPE     H10Y     HAL2     0.900000E-01   1.00800           0
     20979 MEMB     168      PMPE     C311     CTL2    -0.180000       12.0110           0
     20980 MEMB     168      PMPE     H11X     HAL2     0.900000E-01   1.00800           0
     20981 MEMB     168      PMPE     H11Y     HAL2     0.900000E-01   1.00800           0
     20982 MEMB     168      PMPE     C312     CTL2    -0.180000       12.0110           0
     20983 MEMB     168      PMPE     H12X     HAL2     0.900000E-01   1.00800           0
     20984 MEMB     168      PMPE     H12Y     HAL2     0.900000E-01   1.00800           0
     20985 MEMB     168      PMPE     C313     CTL2    -0.180000       12.0110           0
     20986 MEMB     168      PMPE     H13X     HAL2     0.900000E-01   1.00800           0
     20987 MEMB     168      PMPE     H13Y     HAL2     0.900000E-01   1.00800           0
     20988 MEMB     168      PMPE     C314     CTL2    -0.180000       12.0110           0
     20989 MEMB     168      PMPE     H14X     HAL2     0.900000E-01   1.00800           0
     20990 MEMB     168      PMPE     H14Y     HAL2     0.900000E-01   1.00800           0
     20991 MEMB     168      PMPE     C315     CTL2    -0.180000       12.0110           0
     20992 MEMB     168      PMPE     H15X     HAL2     0.900000E-01   1.00800           0
     20993 MEMB     168      PMPE     H15Y     HAL2     0.900000E-01   1.00800           0
     20994 MEMB     168      PMPE     C316     CTL3    -0.270000       12.0110           0
     20995 MEMB     168      PMPE     H16X     HAL3     0.900000E-01   1.00800           0
     20996 MEMB     168      PMPE     H16Y     HAL3     0.900000E-01   1.00800           0
     20997 MEMB     168      PMPE     H16Z     HAL3     0.900000E-01   1.00800           0
     20998 MEMB     169      OYPE     N        NH3L    -0.300000       14.0070           0
     20999 MEMB     169      OYPE     HN1      HCL      0.330000       1.00800           0
     21000 MEMB     169      OYPE     HN2      HCL      0.330000       1.00800           0
     21001 MEMB     169      OYPE     HN3      HCL      0.330000       1.00800           0
     21002 MEMB     169      OYPE     C12      CTL2     0.130000       12.0110           0
     21003 MEMB     169      OYPE     H12A     HAL2     0.900000E-01   1.00800           0
     21004 MEMB     169      OYPE     H12B     HAL2     0.900000E-01   1.00800           0
     21005 MEMB     169      OYPE     C11      CTL2    -0.800000E-01   12.0110           0
     21006 MEMB     169      OYPE     H11A     HAL2     0.900000E-01   1.00800           0
     21007 MEMB     169      OYPE     H11B     HAL2     0.900000E-01   1.00800           0
     21008 MEMB     169      OYPE     P        PL        1.50000       30.9740           0
     21009 MEMB     169      OYPE     O13      O2L     -0.780000       15.9994           0
     21010 MEMB     169      OYPE     O14      O2L     -0.780000       15.9994           0
     21011 MEMB     169      OYPE     O11      OSLP    -0.570000       15.9994           0
     21012 MEMB     169      OYPE     O12      OSLP    -0.570000       15.9994           0
     21013 MEMB     169      OYPE     C1       CTL2    -0.800000E-01   12.0110           0
     21014 MEMB     169      OYPE     HA       HAL2     0.900000E-01   1.00800           0
     21015 MEMB     169      OYPE     HB       HAL2     0.900000E-01   1.00800           0
     21016 MEMB     169      OYPE     C2       CTL1     0.170000       12.0110           0
     21017 MEMB     169      OYPE     HS       HAL1     0.900000E-01   1.00800           0
     21018 MEMB     169      OYPE     O21      OSL     -0.490000       15.9994           0
     21019 MEMB     169      OYPE     C21      CL       0.900000       12.0110           0
     21020 MEMB     169      OYPE     O22      OBL     -0.630000       15.9994           0
     21021 MEMB     169      OYPE     C22      CTL2    -0.220000       12.0110           0
     21022 MEMB     169      OYPE     H2R      HAL2     0.900000E-01   1.00800           0
     21023 MEMB     169      OYPE     H2S      HAL2     0.900000E-01   1.00800           0
     21024 MEMB     169      OYPE     C3       CTL2     0.800000E-01   12.0110           0
     21025 MEMB     169      OYPE     HX       HAL2     0.900000E-01   1.00800           0
     21026 MEMB     169      OYPE     HY       HAL2     0.900000E-01   1.00800           0
     21027 MEMB     169      OYPE     O31      OSL     -0.490000       15.9994           0
     21028 MEMB     169      OYPE     C31      CL       0.900000       12.0110           0
     21029 MEMB     169      OYPE     O32      OBL     -0.630000       15.9994           0
     21030 MEMB     169      OYPE     C32      CTL2    -0.220000       12.0110           0
     21031 MEMB     169      OYPE     H2X      HAL2     0.900000E-01   1.00800           0
     21032 MEMB     169      OYPE     H2Y      HAL2     0.900000E-01   1.00800           0
     21033 MEMB     169      OYPE     C23      CTL2    -0.180000       12.0110           0
     21034 MEMB     169      OYPE     H3R      HAL2     0.900000E-01   1.00800           0
     21035 MEMB     169      OYPE     H3S      HAL2     0.900000E-01   1.00800           0
     21036 MEMB     169      OYPE     C24      CTL2    -0.180000       12.0110           0
     21037 MEMB     169      OYPE     H4R      HAL2     0.900000E-01   1.00800           0
     21038 MEMB     169      OYPE     H4S      HAL2     0.900000E-01   1.00800           0
     21039 MEMB     169      OYPE     C25      CTL2    -0.180000       12.0110           0
     21040 MEMB     169      OYPE     H5R      HAL2     0.900000E-01   1.00800           0
     21041 MEMB     169      OYPE     H5S      HAL2     0.900000E-01   1.00800           0
     21042 MEMB     169      OYPE     C26      CTL2    -0.180000       12.0110           0
     21043 MEMB     169      OYPE     H6R      HAL2     0.900000E-01   1.00800           0
     21044 MEMB     169      OYPE     H6S      HAL2     0.900000E-01   1.00800           0
     21045 MEMB     169      OYPE     C27      CTL2    -0.180000       12.0110           0
     21046 MEMB     169      OYPE     H7R      HAL2     0.900000E-01   1.00800           0
     21047 MEMB     169      OYPE     H7S      HAL2     0.900000E-01   1.00800           0
     21048 MEMB     169      OYPE     C28      CTL2    -0.180000       12.0110           0
     21049 MEMB     169      OYPE     H8R      HAL2     0.900000E-01   1.00800           0
     21050 MEMB     169      OYPE     H8S      HAL2     0.900000E-01   1.00800           0
     21051 MEMB     169      OYPE     C29      CEL1    -0.150000       12.0110           0
     21052 MEMB     169      OYPE     H9R      HEL1     0.150000       1.00800           0
     21053 MEMB     169      OYPE     C210     CEL1    -0.150000       12.0110           0
     21054 MEMB     169      OYPE     H10R     HEL1     0.150000       1.00800           0
     21055 MEMB     169      OYPE     C211     CTL2    -0.180000       12.0110           0
     21056 MEMB     169      OYPE     H11R     HAL2     0.900000E-01   1.00800           0
     21057 MEMB     169      OYPE     H11S     HAL2     0.900000E-01   1.00800           0
     21058 MEMB     169      OYPE     C212     CTL2    -0.180000       12.0110           0
     21059 MEMB     169      OYPE     H12R     HAL2     0.900000E-01   1.00800           0
     21060 MEMB     169      OYPE     H12S     HAL2     0.900000E-01   1.00800           0
     21061 MEMB     169      OYPE     C213     CTL2    -0.180000       12.0110           0
     21062 MEMB     169      OYPE     H13R     HAL2     0.900000E-01   1.00800           0
     21063 MEMB     169      OYPE     H13S     HAL2     0.900000E-01   1.00800           0
     21064 MEMB     169      OYPE     C214     CTL2    -0.180000       12.0110           0
     21065 MEMB     169      OYPE     H14R     HAL2     0.900000E-01   1.00800           0
     21066 MEMB     169      OYPE     H14S     HAL2     0.900000E-01   1.00800           0
     21067 MEMB     169      OYPE     C215     CTL2    -0.180000       12.0110           0
     21068 MEMB     169      OYPE     H15R     HAL2     0.900000E-01   1.00800           0
     21069 MEMB     169      OYPE     H15S     HAL2     0.900000E-01   1.00800           0
     21070 MEMB     169      OYPE     C216     CTL3    -0.270000       12.0110           0
     21071 MEMB     169      OYPE     H16R     HAL3     0.900000E-01   1.00800           0
     21072 MEMB     169      OYPE     H16S     HAL3     0.900000E-01   1.00800           0
     21073 MEMB     169      OYPE     H16T     HAL3     0.900000E-01   1.00800           0
     21074 MEMB     169      OYPE     C33      CTL2    -0.180000       12.0110           0
     21075 MEMB     169      OYPE     H3X      HAL2     0.900000E-01   1.00800           0
     21076 MEMB     169      OYPE     H3Y      HAL2     0.900000E-01   1.00800           0
     21077 MEMB     169      OYPE     C34      CTL2    -0.180000       12.0110           0
     21078 MEMB     169      OYPE     H4X      HAL2     0.900000E-01   1.00800           0
     21079 MEMB     169      OYPE     H4Y      HAL2     0.900000E-01   1.00800           0
     21080 MEMB     169      OYPE     C35      CTL2    -0.180000       12.0110           0
     21081 MEMB     169      OYPE     H5X      HAL2     0.900000E-01   1.00800           0
     21082 MEMB     169      OYPE     H5Y      HAL2     0.900000E-01   1.00800           0
     21083 MEMB     169      OYPE     C36      CTL2    -0.180000       12.0110           0
     21084 MEMB     169      OYPE     H6X      HAL2     0.900000E-01   1.00800           0
     21085 MEMB     169      OYPE     H6Y      HAL2     0.900000E-01   1.00800           0
     21086 MEMB     169      OYPE     C37      CTL2    -0.180000       12.0110           0
     21087 MEMB     169      OYPE     H7X      HAL2     0.900000E-01   1.00800           0
     21088 MEMB     169      OYPE     H7Y      HAL2     0.900000E-01   1.00800           0
     21089 MEMB     169      OYPE     C38      CTL2    -0.180000       12.0110           0
     21090 MEMB     169      OYPE     H8X      HAL2     0.900000E-01   1.00800           0
     21091 MEMB     169      OYPE     H8Y      HAL2     0.900000E-01   1.00800           0
     21092 MEMB     169      OYPE     C39      CEL1    -0.150000       12.0110           0
     21093 MEMB     169      OYPE     H9X      HEL1     0.150000       1.00800           0
     21094 MEMB     169      OYPE     C310     CEL1    -0.150000       12.0110           0
     21095 MEMB     169      OYPE     H10X     HEL1     0.150000       1.00800           0
     21096 MEMB     169      OYPE     C311     CTL2    -0.180000       12.0110           0
     21097 MEMB     169      OYPE     H11X     HAL2     0.900000E-01   1.00800           0
     21098 MEMB     169      OYPE     H11Y     HAL2     0.900000E-01   1.00800           0
     21099 MEMB     169      OYPE     C312     CTL2    -0.180000       12.0110           0
     21100 MEMB     169      OYPE     H12X     HAL2     0.900000E-01   1.00800           0
     21101 MEMB     169      OYPE     H12Y     HAL2     0.900000E-01   1.00800           0
     21102 MEMB     169      OYPE     C313     CTL2    -0.180000       12.0110           0
     21103 MEMB     169      OYPE     H13X     HAL2     0.900000E-01   1.00800           0
     21104 MEMB     169      OYPE     H13Y     HAL2     0.900000E-01   1.00800           0
     21105 MEMB     169      OYPE     C314     CTL2    -0.180000       12.0110           0
     21106 MEMB     169      OYPE     H14X     HAL2     0.900000E-01   1.00800           0
     21107 MEMB     169      OYPE     H14Y     HAL2     0.900000E-01   1.00800           0
     21108 MEMB     169      OYPE     C315     CTL2    -0.180000       12.0110           0
     21109 MEMB     169      OYPE     H15X     HAL2     0.900000E-01   1.00800           0
     21110 MEMB     169      OYPE     H15Y     HAL2     0.900000E-01   1.00800           0
     21111 MEMB     169      OYPE     C316     CTL2    -0.180000       12.0110           0
     21112 MEMB     169      OYPE     H16X     HAL2     0.900000E-01   1.00800           0
     21113 MEMB     169      OYPE     H16Y     HAL2     0.900000E-01   1.00800           0
     21114 MEMB     169      OYPE     C317     CTL2    -0.180000       12.0110           0
     21115 MEMB     169      OYPE     H17X     HAL2     0.900000E-01   1.00800           0
     21116 MEMB     169      OYPE     H17Y     HAL2     0.900000E-01   1.00800           0
     21117 MEMB     169      OYPE     C318     CTL3    -0.270000       12.0110           0
     21118 MEMB     169      OYPE     H18X     HAL3     0.900000E-01   1.00800           0
     21119 MEMB     169      OYPE     H18Y     HAL3     0.900000E-01   1.00800           0
     21120 MEMB     169      OYPE     H18Z     HAL3     0.900000E-01   1.00800           0
     21121 MEMB     170      PYPG     C13      CTL2     0.500000E-01   12.0110           0
     21122 MEMB     170      PYPG     H13A     HAL2     0.900000E-01   1.00800           0
     21123 MEMB     170      PYPG     H13B     HAL2     0.900000E-01   1.00800           0
     21124 MEMB     170      PYPG     OC3      OHL     -0.660000       15.9994           0
     21125 MEMB     170      PYPG     HO3      HOL      0.430000       1.00800           0
     21126 MEMB     170      PYPG     C12      CTL1     0.140000       12.0110           0
     21127 MEMB     170      PYPG     H12A     HAL1     0.900000E-01   1.00800           0
     21128 MEMB     170      PYPG     OC2      OHL     -0.660000       15.9994           0
     21129 MEMB     170      PYPG     HO2      HOL      0.430000       1.00800           0
     21130 MEMB     170      PYPG     C11      CTL2    -0.800000E-01   12.0110           0
     21131 MEMB     170      PYPG     H11A     HAL2     0.900000E-01   1.00800           0
     21132 MEMB     170      PYPG     H11B     HAL2     0.900000E-01   1.00800           0
     21133 MEMB     170      PYPG     P        PL        1.50000       30.9740           0
     21134 MEMB     170      PYPG     O13      O2L     -0.780000       15.9994           0
     21135 MEMB     170      PYPG     O14      O2L     -0.780000       15.9994           0
     21136 MEMB     170      PYPG     O11      OSLP    -0.570000       15.9994           0
     21137 MEMB     170      PYPG     O12      OSLP    -0.570000       15.9994           0
     21138 MEMB     170      PYPG     C1       CTL2    -0.800000E-01   12.0110           0
     21139 MEMB     170      PYPG     HA       HAL2     0.900000E-01   1.00800           0
     21140 MEMB     170      PYPG     HB       HAL2     0.900000E-01   1.00800           0
     21141 MEMB     170      PYPG     C2       CTL1     0.170000       12.0110           0
     21142 MEMB     170      PYPG     HS       HAL1     0.900000E-01   1.00800           0
     21143 MEMB     170      PYPG     O21      OSL     -0.490000       15.9994           0
     21144 MEMB     170      PYPG     C21      CL       0.900000       12.0110           0
     21145 MEMB     170      PYPG     O22      OBL     -0.630000       15.9994           0
     21146 MEMB     170      PYPG     C22      CTL2    -0.220000       12.0110           0
     21147 MEMB     170      PYPG     H2R      HAL2     0.900000E-01   1.00800           0
     21148 MEMB     170      PYPG     H2S      HAL2     0.900000E-01   1.00800           0
     21149 MEMB     170      PYPG     C3       CTL2     0.800000E-01   12.0110           0
     21150 MEMB     170      PYPG     HX       HAL2     0.900000E-01   1.00800           0
     21151 MEMB     170      PYPG     HY       HAL2     0.900000E-01   1.00800           0
     21152 MEMB     170      PYPG     O31      OSL     -0.490000       15.9994           0
     21153 MEMB     170      PYPG     C31      CL       0.900000       12.0110           0
     21154 MEMB     170      PYPG     O32      OBL     -0.630000       15.9994           0
     21155 MEMB     170      PYPG     C32      CTL2    -0.220000       12.0110           0
     21156 MEMB     170      PYPG     H2X      HAL2     0.900000E-01   1.00800           0
     21157 MEMB     170      PYPG     H2Y      HAL2     0.900000E-01   1.00800           0
     21158 MEMB     170      PYPG     C23      CTL2    -0.180000       12.0110           0
     21159 MEMB     170      PYPG     H3R      HAL2     0.900000E-01   1.00800           0
     21160 MEMB     170      PYPG     H3S      HAL2     0.900000E-01   1.00800           0
     21161 MEMB     170      PYPG     C24      CTL2    -0.180000       12.0110           0
     21162 MEMB     170      PYPG     H4R      HAL2     0.900000E-01   1.00800           0
     21163 MEMB     170      PYPG     H4S      HAL2     0.900000E-01   1.00800           0
     21164 MEMB     170      PYPG     C25      CTL2    -0.180000       12.0110           0
     21165 MEMB     170      PYPG     H5R      HAL2     0.900000E-01   1.00800           0
     21166 MEMB     170      PYPG     H5S      HAL2     0.900000E-01   1.00800           0
     21167 MEMB     170      PYPG     C26      CTL2    -0.180000       12.0110           0
     21168 MEMB     170      PYPG     H6R      HAL2     0.900000E-01   1.00800           0
     21169 MEMB     170      PYPG     H6S      HAL2     0.900000E-01   1.00800           0
     21170 MEMB     170      PYPG     C27      CTL2    -0.180000       12.0110           0
     21171 MEMB     170      PYPG     H7R      HAL2     0.900000E-01   1.00800           0
     21172 MEMB     170      PYPG     H7S      HAL2     0.900000E-01   1.00800           0
     21173 MEMB     170      PYPG     C28      CTL2    -0.180000       12.0110           0
     21174 MEMB     170      PYPG     H8R      HAL2     0.900000E-01   1.00800           0
     21175 MEMB     170      PYPG     H8S      HAL2     0.900000E-01   1.00800           0
     21176 MEMB     170      PYPG     C29      CEL1    -0.150000       12.0110           0
     21177 MEMB     170      PYPG     H9R      HEL1     0.150000       1.00800           0
     21178 MEMB     170      PYPG     C210     CEL1    -0.150000       12.0110           0
     21179 MEMB     170      PYPG     H10R     HEL1     0.150000       1.00800           0
     21180 MEMB     170      PYPG     C211     CTL2    -0.180000       12.0110           0
     21181 MEMB     170      PYPG     H11R     HAL2     0.900000E-01   1.00800           0
     21182 MEMB     170      PYPG     H11S     HAL2     0.900000E-01   1.00800           0
     21183 MEMB     170      PYPG     C212     CTL2    -0.180000       12.0110           0
     21184 MEMB     170      PYPG     H12R     HAL2     0.900000E-01   1.00800           0
     21185 MEMB     170      PYPG     H12S     HAL2     0.900000E-01   1.00800           0
     21186 MEMB     170      PYPG     C213     CTL2    -0.180000       12.0110           0
     21187 MEMB     170      PYPG     H13R     HAL2     0.900000E-01   1.00800           0
     21188 MEMB     170      PYPG     H13S     HAL2     0.900000E-01   1.00800           0
     21189 MEMB     170      PYPG     C214     CTL2    -0.180000       12.0110           0
     21190 MEMB     170      PYPG     H14R     HAL2     0.900000E-01   1.00800           0
     21191 MEMB     170      PYPG     H14S     HAL2     0.900000E-01   1.00800           0
     21192 MEMB     170      PYPG     C215     CTL2    -0.180000       12.0110           0
     21193 MEMB     170      PYPG     H15R     HAL2     0.900000E-01   1.00800           0
     21194 MEMB     170      PYPG     H15S     HAL2     0.900000E-01   1.00800           0
     21195 MEMB     170      PYPG     C216     CTL3    -0.270000       12.0110           0
     21196 MEMB     170      PYPG     H16R     HAL3     0.900000E-01   1.00800           0
     21197 MEMB     170      PYPG     H16S     HAL3     0.900000E-01   1.00800           0
     21198 MEMB     170      PYPG     H16T     HAL3     0.900000E-01   1.00800           0
     21199 MEMB     170      PYPG     C33      CTL2    -0.180000       12.0110           0
     21200 MEMB     170      PYPG     H3X      HAL2     0.900000E-01   1.00800           0
     21201 MEMB     170      PYPG     H3Y      HAL2     0.900000E-01   1.00800           0
     21202 MEMB     170      PYPG     C34      CTL2    -0.180000       12.0110           0
     21203 MEMB     170      PYPG     H4X      HAL2     0.900000E-01   1.00800           0
     21204 MEMB     170      PYPG     H4Y      HAL2     0.900000E-01   1.00800           0
     21205 MEMB     170      PYPG     C35      CTL2    -0.180000       12.0110           0
     21206 MEMB     170      PYPG     H5X      HAL2     0.900000E-01   1.00800           0
     21207 MEMB     170      PYPG     H5Y      HAL2     0.900000E-01   1.00800           0
     21208 MEMB     170      PYPG     C36      CTL2    -0.180000       12.0110           0
     21209 MEMB     170      PYPG     H6X      HAL2     0.900000E-01   1.00800           0
     21210 MEMB     170      PYPG     H6Y      HAL2     0.900000E-01   1.00800           0
     21211 MEMB     170      PYPG     C37      CTL2    -0.180000       12.0110           0
     21212 MEMB     170      PYPG     H7X      HAL2     0.900000E-01   1.00800           0
     21213 MEMB     170      PYPG     H7Y      HAL2     0.900000E-01   1.00800           0
     21214 MEMB     170      PYPG     C38      CTL2    -0.180000       12.0110           0
     21215 MEMB     170      PYPG     H8X      HAL2     0.900000E-01   1.00800           0
     21216 MEMB     170      PYPG     H8Y      HAL2     0.900000E-01   1.00800           0
     21217 MEMB     170      PYPG     C39      CTL2    -0.180000       12.0110           0
     21218 MEMB     170      PYPG     H9X      HAL2     0.900000E-01   1.00800           0
     21219 MEMB     170      PYPG     H9Y      HAL2     0.900000E-01   1.00800           0
     21220 MEMB     170      PYPG     C310     CTL2    -0.180000       12.0110           0
     21221 MEMB     170      PYPG     H10X     HAL2     0.900000E-01   1.00800           0
     21222 MEMB     170      PYPG     H10Y     HAL2     0.900000E-01   1.00800           0
     21223 MEMB     170      PYPG     C311     CTL2    -0.180000       12.0110           0
     21224 MEMB     170      PYPG     H11X     HAL2     0.900000E-01   1.00800           0
     21225 MEMB     170      PYPG     H11Y     HAL2     0.900000E-01   1.00800           0
     21226 MEMB     170      PYPG     C312     CTL2    -0.180000       12.0110           0
     21227 MEMB     170      PYPG     H12X     HAL2     0.900000E-01   1.00800           0
     21228 MEMB     170      PYPG     H12Y     HAL2     0.900000E-01   1.00800           0
     21229 MEMB     170      PYPG     C313     CTL2    -0.180000       12.0110           0
     21230 MEMB     170      PYPG     H13X     HAL2     0.900000E-01   1.00800           0
     21231 MEMB     170      PYPG     H13Y     HAL2     0.900000E-01   1.00800           0
     21232 MEMB     170      PYPG     C314     CTL2    -0.180000       12.0110           0
     21233 MEMB     170      PYPG     H14X     HAL2     0.900000E-01   1.00800           0
     21234 MEMB     170      PYPG     H14Y     HAL2     0.900000E-01   1.00800           0
     21235 MEMB     170      PYPG     C315     CTL2    -0.180000       12.0110           0
     21236 MEMB     170      PYPG     H15X     HAL2     0.900000E-01   1.00800           0
     21237 MEMB     170      PYPG     H15Y     HAL2     0.900000E-01   1.00800           0
     21238 MEMB     170      PYPG     C316     CTL3    -0.270000       12.0110           0
     21239 MEMB     170      PYPG     H16X     HAL3     0.900000E-01   1.00800           0
     21240 MEMB     170      PYPG     H16Y     HAL3     0.900000E-01   1.00800           0
     21241 MEMB     170      PYPG     H16Z     HAL3     0.900000E-01   1.00800           0
     21242 MEMB     171      PMPE     N        NH3L    -0.300000       14.0070           0
     21243 MEMB     171      PMPE     HN1      HCL      0.330000       1.00800           0
     21244 MEMB     171      PMPE     HN2      HCL      0.330000       1.00800           0
     21245 MEMB     171      PMPE     HN3      HCL      0.330000       1.00800           0
     21246 MEMB     171      PMPE     C12      CTL2     0.130000       12.0110           0
     21247 MEMB     171      PMPE     H12A     HAL2     0.900000E-01   1.00800           0
     21248 MEMB     171      PMPE     H12B     HAL2     0.900000E-01   1.00800           0
     21249 MEMB     171      PMPE     C11      CTL2    -0.800000E-01   12.0110           0
     21250 MEMB     171      PMPE     H11A     HAL2     0.900000E-01   1.00800           0
     21251 MEMB     171      PMPE     H11B     HAL2     0.900000E-01   1.00800           0
     21252 MEMB     171      PMPE     P        PL        1.50000       30.9740           0
     21253 MEMB     171      PMPE     O13      O2L     -0.780000       15.9994           0
     21254 MEMB     171      PMPE     O14      O2L     -0.780000       15.9994           0
     21255 MEMB     171      PMPE     O11      OSLP    -0.570000       15.9994           0
     21256 MEMB     171      PMPE     O12      OSLP    -0.570000       15.9994           0
     21257 MEMB     171      PMPE     C1       CTL2    -0.800000E-01   12.0110           0
     21258 MEMB     171      PMPE     HA       HAL2     0.900000E-01   1.00800           0
     21259 MEMB     171      PMPE     HB       HAL2     0.900000E-01   1.00800           0
     21260 MEMB     171      PMPE     C2       CTL1     0.170000       12.0110           0
     21261 MEMB     171      PMPE     HS       HAL1     0.900000E-01   1.00800           0
     21262 MEMB     171      PMPE     O21      OSL     -0.490000       15.9994           0
     21263 MEMB     171      PMPE     C21      CL       0.900000       12.0110           0
     21264 MEMB     171      PMPE     O22      OBL     -0.630000       15.9994           0
     21265 MEMB     171      PMPE     C22      CTL2    -0.220000       12.0110           0
     21266 MEMB     171      PMPE     H2R      HAL2     0.900000E-01   1.00800           0
     21267 MEMB     171      PMPE     H2S      HAL2     0.900000E-01   1.00800           0
     21268 MEMB     171      PMPE     C3       CTL2     0.800000E-01   12.0110           0
     21269 MEMB     171      PMPE     HX       HAL2     0.900000E-01   1.00800           0
     21270 MEMB     171      PMPE     HY       HAL2     0.900000E-01   1.00800           0
     21271 MEMB     171      PMPE     O31      OSL     -0.490000       15.9994           0
     21272 MEMB     171      PMPE     C31      CL       0.900000       12.0110           0
     21273 MEMB     171      PMPE     O32      OBL     -0.630000       15.9994           0
     21274 MEMB     171      PMPE     C32      CTL2    -0.220000       12.0110           0
     21275 MEMB     171      PMPE     H2X      HAL2     0.900000E-01   1.00800           0
     21276 MEMB     171      PMPE     H2Y      HAL2     0.900000E-01   1.00800           0
     21277 MEMB     171      PMPE     C23      CTL2    -0.180000       12.0110           0
     21278 MEMB     171      PMPE     H3R      HAL2     0.900000E-01   1.00800           0
     21279 MEMB     171      PMPE     H3S      HAL2     0.900000E-01   1.00800           0
     21280 MEMB     171      PMPE     C24      CTL2    -0.180000       12.0110           0
     21281 MEMB     171      PMPE     H4R      HAL2     0.900000E-01   1.00800           0
     21282 MEMB     171      PMPE     H4S      HAL2     0.900000E-01   1.00800           0
     21283 MEMB     171      PMPE     C25      CTL2    -0.180000       12.0110           0
     21284 MEMB     171      PMPE     H5R      HAL2     0.900000E-01   1.00800           0
     21285 MEMB     171      PMPE     H5S      HAL2     0.900000E-01   1.00800           0
     21286 MEMB     171      PMPE     C26      CTL2    -0.180000       12.0110           0
     21287 MEMB     171      PMPE     H6R      HAL2     0.900000E-01   1.00800           0
     21288 MEMB     171      PMPE     H6S      HAL2     0.900000E-01   1.00800           0
     21289 MEMB     171      PMPE     C27      CTL2    -0.180000       12.0110           0
     21290 MEMB     171      PMPE     H7R      HAL2     0.900000E-01   1.00800           0
     21291 MEMB     171      PMPE     H7S      HAL2     0.900000E-01   1.00800           0
     21292 MEMB     171      PMPE     C28      CTL2    -0.180000       12.0110           0
     21293 MEMB     171      PMPE     H8R      HAL2     0.900000E-01   1.00800           0
     21294 MEMB     171      PMPE     H8S      HAL2     0.900000E-01   1.00800           0
     21295 MEMB     171      PMPE     C29      CG3RC1  -0.900000E-01   12.0110           0
     21296 MEMB     171      PMPE     H9R      HGA1     0.900000E-01   1.00800           0
     21297 MEMB     171      PMPE     C217     CG3C31  -0.180000       12.0110           0
     21298 MEMB     171      PMPE     H17R     HGA2     0.900000E-01   1.00800           0
     21299 MEMB     171      PMPE     H17S     HGA2     0.900000E-01   1.00800           0
     21300 MEMB     171      PMPE     C210     CG3RC1  -0.900000E-01   12.0110           0
     21301 MEMB     171      PMPE     H10R     HGA1     0.900000E-01   1.00800           0
     21302 MEMB     171      PMPE     C211     CTL2    -0.180000       12.0110           0
     21303 MEMB     171      PMPE     H11R     HAL2     0.900000E-01   1.00800           0
     21304 MEMB     171      PMPE     H11S     HAL2     0.900000E-01   1.00800           0
     21305 MEMB     171      PMPE     C212     CTL2    -0.180000       12.0110           0
     21306 MEMB     171      PMPE     H12R     HAL2     0.900000E-01   1.00800           0
     21307 MEMB     171      PMPE     H12S     HAL2     0.900000E-01   1.00800           0
     21308 MEMB     171      PMPE     C213     CTL2    -0.180000       12.0110           0
     21309 MEMB     171      PMPE     H13R     HAL2     0.900000E-01   1.00800           0
     21310 MEMB     171      PMPE     H13S     HAL2     0.900000E-01   1.00800           0
     21311 MEMB     171      PMPE     C214     CTL2    -0.180000       12.0110           0
     21312 MEMB     171      PMPE     H14R     HAL2     0.900000E-01   1.00800           0
     21313 MEMB     171      PMPE     H14S     HAL2     0.900000E-01   1.00800           0
     21314 MEMB     171      PMPE     C215     CTL2    -0.180000       12.0110           0
     21315 MEMB     171      PMPE     H15R     HAL2     0.900000E-01   1.00800           0
     21316 MEMB     171      PMPE     H15S     HAL2     0.900000E-01   1.00800           0
     21317 MEMB     171      PMPE     C216     CTL3    -0.270000       12.0110           0
     21318 MEMB     171      PMPE     H16R     HAL3     0.900000E-01   1.00800           0
     21319 MEMB     171      PMPE     H16S     HAL3     0.900000E-01   1.00800           0
     21320 MEMB     171      PMPE     H16T     HAL3     0.900000E-01   1.00800           0
     21321 MEMB     171      PMPE     C33      CTL2    -0.180000       12.0110           0
     21322 MEMB     171      PMPE     H3X      HAL2     0.900000E-01   1.00800           0
     21323 MEMB     171      PMPE     H3Y      HAL2     0.900000E-01   1.00800           0
     21324 MEMB     171      PMPE     C34      CTL2    -0.180000       12.0110           0
     21325 MEMB     171      PMPE     H4X      HAL2     0.900000E-01   1.00800           0
     21326 MEMB     171      PMPE     H4Y      HAL2     0.900000E-01   1.00800           0
     21327 MEMB     171      PMPE     C35      CTL2    -0.180000       12.0110           0
     21328 MEMB     171      PMPE     H5X      HAL2     0.900000E-01   1.00800           0
     21329 MEMB     171      PMPE     H5Y      HAL2     0.900000E-01   1.00800           0
     21330 MEMB     171      PMPE     C36      CTL2    -0.180000       12.0110           0
     21331 MEMB     171      PMPE     H6X      HAL2     0.900000E-01   1.00800           0
     21332 MEMB     171      PMPE     H6Y      HAL2     0.900000E-01   1.00800           0
     21333 MEMB     171      PMPE     C37      CTL2    -0.180000       12.0110           0
     21334 MEMB     171      PMPE     H7X      HAL2     0.900000E-01   1.00800           0
     21335 MEMB     171      PMPE     H7Y      HAL2     0.900000E-01   1.00800           0
     21336 MEMB     171      PMPE     C38      CTL2    -0.180000       12.0110           0
     21337 MEMB     171      PMPE     H8X      HAL2     0.900000E-01   1.00800           0
     21338 MEMB     171      PMPE     H8Y      HAL2     0.900000E-01   1.00800           0
     21339 MEMB     171      PMPE     C39      CTL2    -0.180000       12.0110           0
     21340 MEMB     171      PMPE     H9X      HAL2     0.900000E-01   1.00800           0
     21341 MEMB     171      PMPE     H9Y      HAL2     0.900000E-01   1.00800           0
     21342 MEMB     171      PMPE     C310     CTL2    -0.180000       12.0110           0
     21343 MEMB     171      PMPE     H10X     HAL2     0.900000E-01   1.00800           0
     21344 MEMB     171      PMPE     H10Y     HAL2     0.900000E-01   1.00800           0
     21345 MEMB     171      PMPE     C311     CTL2    -0.180000       12.0110           0
     21346 MEMB     171      PMPE     H11X     HAL2     0.900000E-01   1.00800           0
     21347 MEMB     171      PMPE     H11Y     HAL2     0.900000E-01   1.00800           0
     21348 MEMB     171      PMPE     C312     CTL2    -0.180000       12.0110           0
     21349 MEMB     171      PMPE     H12X     HAL2     0.900000E-01   1.00800           0
     21350 MEMB     171      PMPE     H12Y     HAL2     0.900000E-01   1.00800           0
     21351 MEMB     171      PMPE     C313     CTL2    -0.180000       12.0110           0
     21352 MEMB     171      PMPE     H13X     HAL2     0.900000E-01   1.00800           0
     21353 MEMB     171      PMPE     H13Y     HAL2     0.900000E-01   1.00800           0
     21354 MEMB     171      PMPE     C314     CTL2    -0.180000       12.0110           0
     21355 MEMB     171      PMPE     H14X     HAL2     0.900000E-01   1.00800           0
     21356 MEMB     171      PMPE     H14Y     HAL2     0.900000E-01   1.00800           0
     21357 MEMB     171      PMPE     C315     CTL2    -0.180000       12.0110           0
     21358 MEMB     171      PMPE     H15X     HAL2     0.900000E-01   1.00800           0
     21359 MEMB     171      PMPE     H15Y     HAL2     0.900000E-01   1.00800           0
     21360 MEMB     171      PMPE     C316     CTL3    -0.270000       12.0110           0
     21361 MEMB     171      PMPE     H16X     HAL3     0.900000E-01   1.00800           0
     21362 MEMB     171      PMPE     H16Y     HAL3     0.900000E-01   1.00800           0
     21363 MEMB     171      PMPE     H16Z     HAL3     0.900000E-01   1.00800           0
     21364 MEMB     172      PMPE     N        NH3L    -0.300000       14.0070           0
     21365 MEMB     172      PMPE     HN1      HCL      0.330000       1.00800           0
     21366 MEMB     172      PMPE     HN2      HCL      0.330000       1.00800           0
     21367 MEMB     172      PMPE     HN3      HCL      0.330000       1.00800           0
     21368 MEMB     172      PMPE     C12      CTL2     0.130000       12.0110           0
     21369 MEMB     172      PMPE     H12A     HAL2     0.900000E-01   1.00800           0
     21370 MEMB     172      PMPE     H12B     HAL2     0.900000E-01   1.00800           0
     21371 MEMB     172      PMPE     C11      CTL2    -0.800000E-01   12.0110           0
     21372 MEMB     172      PMPE     H11A     HAL2     0.900000E-01   1.00800           0
     21373 MEMB     172      PMPE     H11B     HAL2     0.900000E-01   1.00800           0
     21374 MEMB     172      PMPE     P        PL        1.50000       30.9740           0
     21375 MEMB     172      PMPE     O13      O2L     -0.780000       15.9994           0
     21376 MEMB     172      PMPE     O14      O2L     -0.780000       15.9994           0
     21377 MEMB     172      PMPE     O11      OSLP    -0.570000       15.9994           0
     21378 MEMB     172      PMPE     O12      OSLP    -0.570000       15.9994           0
     21379 MEMB     172      PMPE     C1       CTL2    -0.800000E-01   12.0110           0
     21380 MEMB     172      PMPE     HA       HAL2     0.900000E-01   1.00800           0
     21381 MEMB     172      PMPE     HB       HAL2     0.900000E-01   1.00800           0
     21382 MEMB     172      PMPE     C2       CTL1     0.170000       12.0110           0
     21383 MEMB     172      PMPE     HS       HAL1     0.900000E-01   1.00800           0
     21384 MEMB     172      PMPE     O21      OSL     -0.490000       15.9994           0
     21385 MEMB     172      PMPE     C21      CL       0.900000       12.0110           0
     21386 MEMB     172      PMPE     O22      OBL     -0.630000       15.9994           0
     21387 MEMB     172      PMPE     C22      CTL2    -0.220000       12.0110           0
     21388 MEMB     172      PMPE     H2R      HAL2     0.900000E-01   1.00800           0
     21389 MEMB     172      PMPE     H2S      HAL2     0.900000E-01   1.00800           0
     21390 MEMB     172      PMPE     C3       CTL2     0.800000E-01   12.0110           0
     21391 MEMB     172      PMPE     HX       HAL2     0.900000E-01   1.00800           0
     21392 MEMB     172      PMPE     HY       HAL2     0.900000E-01   1.00800           0
     21393 MEMB     172      PMPE     O31      OSL     -0.490000       15.9994           0
     21394 MEMB     172      PMPE     C31      CL       0.900000       12.0110           0
     21395 MEMB     172      PMPE     O32      OBL     -0.630000       15.9994           0
     21396 MEMB     172      PMPE     C32      CTL2    -0.220000       12.0110           0
     21397 MEMB     172      PMPE     H2X      HAL2     0.900000E-01   1.00800           0
     21398 MEMB     172      PMPE     H2Y      HAL2     0.900000E-01   1.00800           0
     21399 MEMB     172      PMPE     C23      CTL2    -0.180000       12.0110           0
     21400 MEMB     172      PMPE     H3R      HAL2     0.900000E-01   1.00800           0
     21401 MEMB     172      PMPE     H3S      HAL2     0.900000E-01   1.00800           0
     21402 MEMB     172      PMPE     C24      CTL2    -0.180000       12.0110           0
     21403 MEMB     172      PMPE     H4R      HAL2     0.900000E-01   1.00800           0
     21404 MEMB     172      PMPE     H4S      HAL2     0.900000E-01   1.00800           0
     21405 MEMB     172      PMPE     C25      CTL2    -0.180000       12.0110           0
     21406 MEMB     172      PMPE     H5R      HAL2     0.900000E-01   1.00800           0
     21407 MEMB     172      PMPE     H5S      HAL2     0.900000E-01   1.00800           0
     21408 MEMB     172      PMPE     C26      CTL2    -0.180000       12.0110           0
     21409 MEMB     172      PMPE     H6R      HAL2     0.900000E-01   1.00800           0
     21410 MEMB     172      PMPE     H6S      HAL2     0.900000E-01   1.00800           0
     21411 MEMB     172      PMPE     C27      CTL2    -0.180000       12.0110           0
     21412 MEMB     172      PMPE     H7R      HAL2     0.900000E-01   1.00800           0
     21413 MEMB     172      PMPE     H7S      HAL2     0.900000E-01   1.00800           0
     21414 MEMB     172      PMPE     C28      CTL2    -0.180000       12.0110           0
     21415 MEMB     172      PMPE     H8R      HAL2     0.900000E-01   1.00800           0
     21416 MEMB     172      PMPE     H8S      HAL2     0.900000E-01   1.00800           0
     21417 MEMB     172      PMPE     C29      CG3RC1  -0.900000E-01   12.0110           0
     21418 MEMB     172      PMPE     H9R      HGA1     0.900000E-01   1.00800           0
     21419 MEMB     172      PMPE     C217     CG3C31  -0.180000       12.0110           0
     21420 MEMB     172      PMPE     H17R     HGA2     0.900000E-01   1.00800           0
     21421 MEMB     172      PMPE     H17S     HGA2     0.900000E-01   1.00800           0
     21422 MEMB     172      PMPE     C210     CG3RC1  -0.900000E-01   12.0110           0
     21423 MEMB     172      PMPE     H10R     HGA1     0.900000E-01   1.00800           0
     21424 MEMB     172      PMPE     C211     CTL2    -0.180000       12.0110           0
     21425 MEMB     172      PMPE     H11R     HAL2     0.900000E-01   1.00800           0
     21426 MEMB     172      PMPE     H11S     HAL2     0.900000E-01   1.00800           0
     21427 MEMB     172      PMPE     C212     CTL2    -0.180000       12.0110           0
     21428 MEMB     172      PMPE     H12R     HAL2     0.900000E-01   1.00800           0
     21429 MEMB     172      PMPE     H12S     HAL2     0.900000E-01   1.00800           0
     21430 MEMB     172      PMPE     C213     CTL2    -0.180000       12.0110           0
     21431 MEMB     172      PMPE     H13R     HAL2     0.900000E-01   1.00800           0
     21432 MEMB     172      PMPE     H13S     HAL2     0.900000E-01   1.00800           0
     21433 MEMB     172      PMPE     C214     CTL2    -0.180000       12.0110           0
     21434 MEMB     172      PMPE     H14R     HAL2     0.900000E-01   1.00800           0
     21435 MEMB     172      PMPE     H14S     HAL2     0.900000E-01   1.00800           0
     21436 MEMB     172      PMPE     C215     CTL2    -0.180000       12.0110           0
     21437 MEMB     172      PMPE     H15R     HAL2     0.900000E-01   1.00800           0
     21438 MEMB     172      PMPE     H15S     HAL2     0.900000E-01   1.00800           0
     21439 MEMB     172      PMPE     C216     CTL3    -0.270000       12.0110           0
     21440 MEMB     172      PMPE     H16R     HAL3     0.900000E-01   1.00800           0
     21441 MEMB     172      PMPE     H16S     HAL3     0.900000E-01   1.00800           0
     21442 MEMB     172      PMPE     H16T     HAL3     0.900000E-01   1.00800           0
     21443 MEMB     172      PMPE     C33      CTL2    -0.180000       12.0110           0
     21444 MEMB     172      PMPE     H3X      HAL2     0.900000E-01   1.00800           0
     21445 MEMB     172      PMPE     H3Y      HAL2     0.900000E-01   1.00800           0
     21446 MEMB     172      PMPE     C34      CTL2    -0.180000       12.0110           0
     21447 MEMB     172      PMPE     H4X      HAL2     0.900000E-01   1.00800           0
     21448 MEMB     172      PMPE     H4Y      HAL2     0.900000E-01   1.00800           0
     21449 MEMB     172      PMPE     C35      CTL2    -0.180000       12.0110           0
     21450 MEMB     172      PMPE     H5X      HAL2     0.900000E-01   1.00800           0
     21451 MEMB     172      PMPE     H5Y      HAL2     0.900000E-01   1.00800           0
     21452 MEMB     172      PMPE     C36      CTL2    -0.180000       12.0110           0
     21453 MEMB     172      PMPE     H6X      HAL2     0.900000E-01   1.00800           0
     21454 MEMB     172      PMPE     H6Y      HAL2     0.900000E-01   1.00800           0
     21455 MEMB     172      PMPE     C37      CTL2    -0.180000       12.0110           0
     21456 MEMB     172      PMPE     H7X      HAL2     0.900000E-01   1.00800           0
     21457 MEMB     172      PMPE     H7Y      HAL2     0.900000E-01   1.00800           0
     21458 MEMB     172      PMPE     C38      CTL2    -0.180000       12.0110           0
     21459 MEMB     172      PMPE     H8X      HAL2     0.900000E-01   1.00800           0
     21460 MEMB     172      PMPE     H8Y      HAL2     0.900000E-01   1.00800           0
     21461 MEMB     172      PMPE     C39      CTL2    -0.180000       12.0110           0
     21462 MEMB     172      PMPE     H9X      HAL2     0.900000E-01   1.00800           0
     21463 MEMB     172      PMPE     H9Y      HAL2     0.900000E-01   1.00800           0
     21464 MEMB     172      PMPE     C310     CTL2    -0.180000       12.0110           0
     21465 MEMB     172      PMPE     H10X     HAL2     0.900000E-01   1.00800           0
     21466 MEMB     172      PMPE     H10Y     HAL2     0.900000E-01   1.00800           0
     21467 MEMB     172      PMPE     C311     CTL2    -0.180000       12.0110           0
     21468 MEMB     172      PMPE     H11X     HAL2     0.900000E-01   1.00800           0
     21469 MEMB     172      PMPE     H11Y     HAL2     0.900000E-01   1.00800           0
     21470 MEMB     172      PMPE     C312     CTL2    -0.180000       12.0110           0
     21471 MEMB     172      PMPE     H12X     HAL2     0.900000E-01   1.00800           0
     21472 MEMB     172      PMPE     H12Y     HAL2     0.900000E-01   1.00800           0
     21473 MEMB     172      PMPE     C313     CTL2    -0.180000       12.0110           0
     21474 MEMB     172      PMPE     H13X     HAL2     0.900000E-01   1.00800           0
     21475 MEMB     172      PMPE     H13Y     HAL2     0.900000E-01   1.00800           0
     21476 MEMB     172      PMPE     C314     CTL2    -0.180000       12.0110           0
     21477 MEMB     172      PMPE     H14X     HAL2     0.900000E-01   1.00800           0
     21478 MEMB     172      PMPE     H14Y     HAL2     0.900000E-01   1.00800           0
     21479 MEMB     172      PMPE     C315     CTL2    -0.180000       12.0110           0
     21480 MEMB     172      PMPE     H15X     HAL2     0.900000E-01   1.00800           0
     21481 MEMB     172      PMPE     H15Y     HAL2     0.900000E-01   1.00800           0
     21482 MEMB     172      PMPE     C316     CTL3    -0.270000       12.0110           0
     21483 MEMB     172      PMPE     H16X     HAL3     0.900000E-01   1.00800           0
     21484 MEMB     172      PMPE     H16Y     HAL3     0.900000E-01   1.00800           0
     21485 MEMB     172      PMPE     H16Z     HAL3     0.900000E-01   1.00800           0
     21486 MEMB     173      PMPE     N        NH3L    -0.300000       14.0070           0
     21487 MEMB     173      PMPE     HN1      HCL      0.330000       1.00800           0
     21488 MEMB     173      PMPE     HN2      HCL      0.330000       1.00800           0
     21489 MEMB     173      PMPE     HN3      HCL      0.330000       1.00800           0
     21490 MEMB     173      PMPE     C12      CTL2     0.130000       12.0110           0
     21491 MEMB     173      PMPE     H12A     HAL2     0.900000E-01   1.00800           0
     21492 MEMB     173      PMPE     H12B     HAL2     0.900000E-01   1.00800           0
     21493 MEMB     173      PMPE     C11      CTL2    -0.800000E-01   12.0110           0
     21494 MEMB     173      PMPE     H11A     HAL2     0.900000E-01   1.00800           0
     21495 MEMB     173      PMPE     H11B     HAL2     0.900000E-01   1.00800           0
     21496 MEMB     173      PMPE     P        PL        1.50000       30.9740           0
     21497 MEMB     173      PMPE     O13      O2L     -0.780000       15.9994           0
     21498 MEMB     173      PMPE     O14      O2L     -0.780000       15.9994           0
     21499 MEMB     173      PMPE     O11      OSLP    -0.570000       15.9994           0
     21500 MEMB     173      PMPE     O12      OSLP    -0.570000       15.9994           0
     21501 MEMB     173      PMPE     C1       CTL2    -0.800000E-01   12.0110           0
     21502 MEMB     173      PMPE     HA       HAL2     0.900000E-01   1.00800           0
     21503 MEMB     173      PMPE     HB       HAL2     0.900000E-01   1.00800           0
     21504 MEMB     173      PMPE     C2       CTL1     0.170000       12.0110           0
     21505 MEMB     173      PMPE     HS       HAL1     0.900000E-01   1.00800           0
     21506 MEMB     173      PMPE     O21      OSL     -0.490000       15.9994           0
     21507 MEMB     173      PMPE     C21      CL       0.900000       12.0110           0
     21508 MEMB     173      PMPE     O22      OBL     -0.630000       15.9994           0
     21509 MEMB     173      PMPE     C22      CTL2    -0.220000       12.0110           0
     21510 MEMB     173      PMPE     H2R      HAL2     0.900000E-01   1.00800           0
     21511 MEMB     173      PMPE     H2S      HAL2     0.900000E-01   1.00800           0
     21512 MEMB     173      PMPE     C3       CTL2     0.800000E-01   12.0110           0
     21513 MEMB     173      PMPE     HX       HAL2     0.900000E-01   1.00800           0
     21514 MEMB     173      PMPE     HY       HAL2     0.900000E-01   1.00800           0
     21515 MEMB     173      PMPE     O31      OSL     -0.490000       15.9994           0
     21516 MEMB     173      PMPE     C31      CL       0.900000       12.0110           0
     21517 MEMB     173      PMPE     O32      OBL     -0.630000       15.9994           0
     21518 MEMB     173      PMPE     C32      CTL2    -0.220000       12.0110           0
     21519 MEMB     173      PMPE     H2X      HAL2     0.900000E-01   1.00800           0
     21520 MEMB     173      PMPE     H2Y      HAL2     0.900000E-01   1.00800           0
     21521 MEMB     173      PMPE     C23      CTL2    -0.180000       12.0110           0
     21522 MEMB     173      PMPE     H3R      HAL2     0.900000E-01   1.00800           0
     21523 MEMB     173      PMPE     H3S      HAL2     0.900000E-01   1.00800           0
     21524 MEMB     173      PMPE     C24      CTL2    -0.180000       12.0110           0
     21525 MEMB     173      PMPE     H4R      HAL2     0.900000E-01   1.00800           0
     21526 MEMB     173      PMPE     H4S      HAL2     0.900000E-01   1.00800           0
     21527 MEMB     173      PMPE     C25      CTL2    -0.180000       12.0110           0
     21528 MEMB     173      PMPE     H5R      HAL2     0.900000E-01   1.00800           0
     21529 MEMB     173      PMPE     H5S      HAL2     0.900000E-01   1.00800           0
     21530 MEMB     173      PMPE     C26      CTL2    -0.180000       12.0110           0
     21531 MEMB     173      PMPE     H6R      HAL2     0.900000E-01   1.00800           0
     21532 MEMB     173      PMPE     H6S      HAL2     0.900000E-01   1.00800           0
     21533 MEMB     173      PMPE     C27      CTL2    -0.180000       12.0110           0
     21534 MEMB     173      PMPE     H7R      HAL2     0.900000E-01   1.00800           0
     21535 MEMB     173      PMPE     H7S      HAL2     0.900000E-01   1.00800           0
     21536 MEMB     173      PMPE     C28      CTL2    -0.180000       12.0110           0
     21537 MEMB     173      PMPE     H8R      HAL2     0.900000E-01   1.00800           0
     21538 MEMB     173      PMPE     H8S      HAL2     0.900000E-01   1.00800           0
     21539 MEMB     173      PMPE     C29      CG3RC1  -0.900000E-01   12.0110           0
     21540 MEMB     173      PMPE     H9R      HGA1     0.900000E-01   1.00800           0
     21541 MEMB     173      PMPE     C217     CG3C31  -0.180000       12.0110           0
     21542 MEMB     173      PMPE     H17R     HGA2     0.900000E-01   1.00800           0
     21543 MEMB     173      PMPE     H17S     HGA2     0.900000E-01   1.00800           0
     21544 MEMB     173      PMPE     C210     CG3RC1  -0.900000E-01   12.0110           0
     21545 MEMB     173      PMPE     H10R     HGA1     0.900000E-01   1.00800           0
     21546 MEMB     173      PMPE     C211     CTL2    -0.180000       12.0110           0
     21547 MEMB     173      PMPE     H11R     HAL2     0.900000E-01   1.00800           0
     21548 MEMB     173      PMPE     H11S     HAL2     0.900000E-01   1.00800           0
     21549 MEMB     173      PMPE     C212     CTL2    -0.180000       12.0110           0
     21550 MEMB     173      PMPE     H12R     HAL2     0.900000E-01   1.00800           0
     21551 MEMB     173      PMPE     H12S     HAL2     0.900000E-01   1.00800           0
     21552 MEMB     173      PMPE     C213     CTL2    -0.180000       12.0110           0
     21553 MEMB     173      PMPE     H13R     HAL2     0.900000E-01   1.00800           0
     21554 MEMB     173      PMPE     H13S     HAL2     0.900000E-01   1.00800           0
     21555 MEMB     173      PMPE     C214     CTL2    -0.180000       12.0110           0
     21556 MEMB     173      PMPE     H14R     HAL2     0.900000E-01   1.00800           0
     21557 MEMB     173      PMPE     H14S     HAL2     0.900000E-01   1.00800           0
     21558 MEMB     173      PMPE     C215     CTL2    -0.180000       12.0110           0
     21559 MEMB     173      PMPE     H15R     HAL2     0.900000E-01   1.00800           0
     21560 MEMB     173      PMPE     H15S     HAL2     0.900000E-01   1.00800           0
     21561 MEMB     173      PMPE     C216     CTL3    -0.270000       12.0110           0
     21562 MEMB     173      PMPE     H16R     HAL3     0.900000E-01   1.00800           0
     21563 MEMB     173      PMPE     H16S     HAL3     0.900000E-01   1.00800           0
     21564 MEMB     173      PMPE     H16T     HAL3     0.900000E-01   1.00800           0
     21565 MEMB     173      PMPE     C33      CTL2    -0.180000       12.0110           0
     21566 MEMB     173      PMPE     H3X      HAL2     0.900000E-01   1.00800           0
     21567 MEMB     173      PMPE     H3Y      HAL2     0.900000E-01   1.00800           0
     21568 MEMB     173      PMPE     C34      CTL2    -0.180000       12.0110           0
     21569 MEMB     173      PMPE     H4X      HAL2     0.900000E-01   1.00800           0
     21570 MEMB     173      PMPE     H4Y      HAL2     0.900000E-01   1.00800           0
     21571 MEMB     173      PMPE     C35      CTL2    -0.180000       12.0110           0
     21572 MEMB     173      PMPE     H5X      HAL2     0.900000E-01   1.00800           0
     21573 MEMB     173      PMPE     H5Y      HAL2     0.900000E-01   1.00800           0
     21574 MEMB     173      PMPE     C36      CTL2    -0.180000       12.0110           0
     21575 MEMB     173      PMPE     H6X      HAL2     0.900000E-01   1.00800           0
     21576 MEMB     173      PMPE     H6Y      HAL2     0.900000E-01   1.00800           0
     21577 MEMB     173      PMPE     C37      CTL2    -0.180000       12.0110           0
     21578 MEMB     173      PMPE     H7X      HAL2     0.900000E-01   1.00800           0
     21579 MEMB     173      PMPE     H7Y      HAL2     0.900000E-01   1.00800           0
     21580 MEMB     173      PMPE     C38      CTL2    -0.180000       12.0110           0
     21581 MEMB     173      PMPE     H8X      HAL2     0.900000E-01   1.00800           0
     21582 MEMB     173      PMPE     H8Y      HAL2     0.900000E-01   1.00800           0
     21583 MEMB     173      PMPE     C39      CTL2    -0.180000       12.0110           0
     21584 MEMB     173      PMPE     H9X      HAL2     0.900000E-01   1.00800           0
     21585 MEMB     173      PMPE     H9Y      HAL2     0.900000E-01   1.00800           0
     21586 MEMB     173      PMPE     C310     CTL2    -0.180000       12.0110           0
     21587 MEMB     173      PMPE     H10X     HAL2     0.900000E-01   1.00800           0
     21588 MEMB     173      PMPE     H10Y     HAL2     0.900000E-01   1.00800           0
     21589 MEMB     173      PMPE     C311     CTL2    -0.180000       12.0110           0
     21590 MEMB     173      PMPE     H11X     HAL2     0.900000E-01   1.00800           0
     21591 MEMB     173      PMPE     H11Y     HAL2     0.900000E-01   1.00800           0
     21592 MEMB     173      PMPE     C312     CTL2    -0.180000       12.0110           0
     21593 MEMB     173      PMPE     H12X     HAL2     0.900000E-01   1.00800           0
     21594 MEMB     173      PMPE     H12Y     HAL2     0.900000E-01   1.00800           0
     21595 MEMB     173      PMPE     C313     CTL2    -0.180000       12.0110           0
     21596 MEMB     173      PMPE     H13X     HAL2     0.900000E-01   1.00800           0
     21597 MEMB     173      PMPE     H13Y     HAL2     0.900000E-01   1.00800           0
     21598 MEMB     173      PMPE     C314     CTL2    -0.180000       12.0110           0
     21599 MEMB     173      PMPE     H14X     HAL2     0.900000E-01   1.00800           0
     21600 MEMB     173      PMPE     H14Y     HAL2     0.900000E-01   1.00800           0
     21601 MEMB     173      PMPE     C315     CTL2    -0.180000       12.0110           0
     21602 MEMB     173      PMPE     H15X     HAL2     0.900000E-01   1.00800           0
     21603 MEMB     173      PMPE     H15Y     HAL2     0.900000E-01   1.00800           0
     21604 MEMB     173      PMPE     C316     CTL3    -0.270000       12.0110           0
     21605 MEMB     173      PMPE     H16X     HAL3     0.900000E-01   1.00800           0
     21606 MEMB     173      PMPE     H16Y     HAL3     0.900000E-01   1.00800           0
     21607 MEMB     173      PMPE     H16Z     HAL3     0.900000E-01   1.00800           0
     21608 MEMB     174      PMPE     N        NH3L    -0.300000       14.0070           0
     21609 MEMB     174      PMPE     HN1      HCL      0.330000       1.00800           0
     21610 MEMB     174      PMPE     HN2      HCL      0.330000       1.00800           0
     21611 MEMB     174      PMPE     HN3      HCL      0.330000       1.00800           0
     21612 MEMB     174      PMPE     C12      CTL2     0.130000       12.0110           0
     21613 MEMB     174      PMPE     H12A     HAL2     0.900000E-01   1.00800           0
     21614 MEMB     174      PMPE     H12B     HAL2     0.900000E-01   1.00800           0
     21615 MEMB     174      PMPE     C11      CTL2    -0.800000E-01   12.0110           0
     21616 MEMB     174      PMPE     H11A     HAL2     0.900000E-01   1.00800           0
     21617 MEMB     174      PMPE     H11B     HAL2     0.900000E-01   1.00800           0
     21618 MEMB     174      PMPE     P        PL        1.50000       30.9740           0
     21619 MEMB     174      PMPE     O13      O2L     -0.780000       15.9994           0
     21620 MEMB     174      PMPE     O14      O2L     -0.780000       15.9994           0
     21621 MEMB     174      PMPE     O11      OSLP    -0.570000       15.9994           0
     21622 MEMB     174      PMPE     O12      OSLP    -0.570000       15.9994           0
     21623 MEMB     174      PMPE     C1       CTL2    -0.800000E-01   12.0110           0
     21624 MEMB     174      PMPE     HA       HAL2     0.900000E-01   1.00800           0
     21625 MEMB     174      PMPE     HB       HAL2     0.900000E-01   1.00800           0
     21626 MEMB     174      PMPE     C2       CTL1     0.170000       12.0110           0
     21627 MEMB     174      PMPE     HS       HAL1     0.900000E-01   1.00800           0
     21628 MEMB     174      PMPE     O21      OSL     -0.490000       15.9994           0
     21629 MEMB     174      PMPE     C21      CL       0.900000       12.0110           0
     21630 MEMB     174      PMPE     O22      OBL     -0.630000       15.9994           0
     21631 MEMB     174      PMPE     C22      CTL2    -0.220000       12.0110           0
     21632 MEMB     174      PMPE     H2R      HAL2     0.900000E-01   1.00800           0
     21633 MEMB     174      PMPE     H2S      HAL2     0.900000E-01   1.00800           0
     21634 MEMB     174      PMPE     C3       CTL2     0.800000E-01   12.0110           0
     21635 MEMB     174      PMPE     HX       HAL2     0.900000E-01   1.00800           0
     21636 MEMB     174      PMPE     HY       HAL2     0.900000E-01   1.00800           0
     21637 MEMB     174      PMPE     O31      OSL     -0.490000       15.9994           0
     21638 MEMB     174      PMPE     C31      CL       0.900000       12.0110           0
     21639 MEMB     174      PMPE     O32      OBL     -0.630000       15.9994           0
     21640 MEMB     174      PMPE     C32      CTL2    -0.220000       12.0110           0
     21641 MEMB     174      PMPE     H2X      HAL2     0.900000E-01   1.00800           0
     21642 MEMB     174      PMPE     H2Y      HAL2     0.900000E-01   1.00800           0
     21643 MEMB     174      PMPE     C23      CTL2    -0.180000       12.0110           0
     21644 MEMB     174      PMPE     H3R      HAL2     0.900000E-01   1.00800           0
     21645 MEMB     174      PMPE     H3S      HAL2     0.900000E-01   1.00800           0
     21646 MEMB     174      PMPE     C24      CTL2    -0.180000       12.0110           0
     21647 MEMB     174      PMPE     H4R      HAL2     0.900000E-01   1.00800           0
     21648 MEMB     174      PMPE     H4S      HAL2     0.900000E-01   1.00800           0
     21649 MEMB     174      PMPE     C25      CTL2    -0.180000       12.0110           0
     21650 MEMB     174      PMPE     H5R      HAL2     0.900000E-01   1.00800           0
     21651 MEMB     174      PMPE     H5S      HAL2     0.900000E-01   1.00800           0
     21652 MEMB     174      PMPE     C26      CTL2    -0.180000       12.0110           0
     21653 MEMB     174      PMPE     H6R      HAL2     0.900000E-01   1.00800           0
     21654 MEMB     174      PMPE     H6S      HAL2     0.900000E-01   1.00800           0
     21655 MEMB     174      PMPE     C27      CTL2    -0.180000       12.0110           0
     21656 MEMB     174      PMPE     H7R      HAL2     0.900000E-01   1.00800           0
     21657 MEMB     174      PMPE     H7S      HAL2     0.900000E-01   1.00800           0
     21658 MEMB     174      PMPE     C28      CTL2    -0.180000       12.0110           0
     21659 MEMB     174      PMPE     H8R      HAL2     0.900000E-01   1.00800           0
     21660 MEMB     174      PMPE     H8S      HAL2     0.900000E-01   1.00800           0
     21661 MEMB     174      PMPE     C29      CG3RC1  -0.900000E-01   12.0110           0
     21662 MEMB     174      PMPE     H9R      HGA1     0.900000E-01   1.00800           0
     21663 MEMB     174      PMPE     C217     CG3C31  -0.180000       12.0110           0
     21664 MEMB     174      PMPE     H17R     HGA2     0.900000E-01   1.00800           0
     21665 MEMB     174      PMPE     H17S     HGA2     0.900000E-01   1.00800           0
     21666 MEMB     174      PMPE     C210     CG3RC1  -0.900000E-01   12.0110           0
     21667 MEMB     174      PMPE     H10R     HGA1     0.900000E-01   1.00800           0
     21668 MEMB     174      PMPE     C211     CTL2    -0.180000       12.0110           0
     21669 MEMB     174      PMPE     H11R     HAL2     0.900000E-01   1.00800           0
     21670 MEMB     174      PMPE     H11S     HAL2     0.900000E-01   1.00800           0
     21671 MEMB     174      PMPE     C212     CTL2    -0.180000       12.0110           0
     21672 MEMB     174      PMPE     H12R     HAL2     0.900000E-01   1.00800           0
     21673 MEMB     174      PMPE     H12S     HAL2     0.900000E-01   1.00800           0
     21674 MEMB     174      PMPE     C213     CTL2    -0.180000       12.0110           0
     21675 MEMB     174      PMPE     H13R     HAL2     0.900000E-01   1.00800           0
     21676 MEMB     174      PMPE     H13S     HAL2     0.900000E-01   1.00800           0
     21677 MEMB     174      PMPE     C214     CTL2    -0.180000       12.0110           0
     21678 MEMB     174      PMPE     H14R     HAL2     0.900000E-01   1.00800           0
     21679 MEMB     174      PMPE     H14S     HAL2     0.900000E-01   1.00800           0
     21680 MEMB     174      PMPE     C215     CTL2    -0.180000       12.0110           0
     21681 MEMB     174      PMPE     H15R     HAL2     0.900000E-01   1.00800           0
     21682 MEMB     174      PMPE     H15S     HAL2     0.900000E-01   1.00800           0
     21683 MEMB     174      PMPE     C216     CTL3    -0.270000       12.0110           0
     21684 MEMB     174      PMPE     H16R     HAL3     0.900000E-01   1.00800           0
     21685 MEMB     174      PMPE     H16S     HAL3     0.900000E-01   1.00800           0
     21686 MEMB     174      PMPE     H16T     HAL3     0.900000E-01   1.00800           0
     21687 MEMB     174      PMPE     C33      CTL2    -0.180000       12.0110           0
     21688 MEMB     174      PMPE     H3X      HAL2     0.900000E-01   1.00800           0
     21689 MEMB     174      PMPE     H3Y      HAL2     0.900000E-01   1.00800           0
     21690 MEMB     174      PMPE     C34      CTL2    -0.180000       12.0110           0
     21691 MEMB     174      PMPE     H4X      HAL2     0.900000E-01   1.00800           0
     21692 MEMB     174      PMPE     H4Y      HAL2     0.900000E-01   1.00800           0
     21693 MEMB     174      PMPE     C35      CTL2    -0.180000       12.0110           0
     21694 MEMB     174      PMPE     H5X      HAL2     0.900000E-01   1.00800           0
     21695 MEMB     174      PMPE     H5Y      HAL2     0.900000E-01   1.00800           0
     21696 MEMB     174      PMPE     C36      CTL2    -0.180000       12.0110           0
     21697 MEMB     174      PMPE     H6X      HAL2     0.900000E-01   1.00800           0
     21698 MEMB     174      PMPE     H6Y      HAL2     0.900000E-01   1.00800           0
     21699 MEMB     174      PMPE     C37      CTL2    -0.180000       12.0110           0
     21700 MEMB     174      PMPE     H7X      HAL2     0.900000E-01   1.00800           0
     21701 MEMB     174      PMPE     H7Y      HAL2     0.900000E-01   1.00800           0
     21702 MEMB     174      PMPE     C38      CTL2    -0.180000       12.0110           0
     21703 MEMB     174      PMPE     H8X      HAL2     0.900000E-01   1.00800           0
     21704 MEMB     174      PMPE     H8Y      HAL2     0.900000E-01   1.00800           0
     21705 MEMB     174      PMPE     C39      CTL2    -0.180000       12.0110           0
     21706 MEMB     174      PMPE     H9X      HAL2     0.900000E-01   1.00800           0
     21707 MEMB     174      PMPE     H9Y      HAL2     0.900000E-01   1.00800           0
     21708 MEMB     174      PMPE     C310     CTL2    -0.180000       12.0110           0
     21709 MEMB     174      PMPE     H10X     HAL2     0.900000E-01   1.00800           0
     21710 MEMB     174      PMPE     H10Y     HAL2     0.900000E-01   1.00800           0
     21711 MEMB     174      PMPE     C311     CTL2    -0.180000       12.0110           0
     21712 MEMB     174      PMPE     H11X     HAL2     0.900000E-01   1.00800           0
     21713 MEMB     174      PMPE     H11Y     HAL2     0.900000E-01   1.00800           0
     21714 MEMB     174      PMPE     C312     CTL2    -0.180000       12.0110           0
     21715 MEMB     174      PMPE     H12X     HAL2     0.900000E-01   1.00800           0
     21716 MEMB     174      PMPE     H12Y     HAL2     0.900000E-01   1.00800           0
     21717 MEMB     174      PMPE     C313     CTL2    -0.180000       12.0110           0
     21718 MEMB     174      PMPE     H13X     HAL2     0.900000E-01   1.00800           0
     21719 MEMB     174      PMPE     H13Y     HAL2     0.900000E-01   1.00800           0
     21720 MEMB     174      PMPE     C314     CTL2    -0.180000       12.0110           0
     21721 MEMB     174      PMPE     H14X     HAL2     0.900000E-01   1.00800           0
     21722 MEMB     174      PMPE     H14Y     HAL2     0.900000E-01   1.00800           0
     21723 MEMB     174      PMPE     C315     CTL2    -0.180000       12.0110           0
     21724 MEMB     174      PMPE     H15X     HAL2     0.900000E-01   1.00800           0
     21725 MEMB     174      PMPE     H15Y     HAL2     0.900000E-01   1.00800           0
     21726 MEMB     174      PMPE     C316     CTL3    -0.270000       12.0110           0
     21727 MEMB     174      PMPE     H16X     HAL3     0.900000E-01   1.00800           0
     21728 MEMB     174      PMPE     H16Y     HAL3     0.900000E-01   1.00800           0
     21729 MEMB     174      PMPE     H16Z     HAL3     0.900000E-01   1.00800           0
     21730 MEMB     175      PMPE     N        NH3L    -0.300000       14.0070           0
     21731 MEMB     175      PMPE     HN1      HCL      0.330000       1.00800           0
     21732 MEMB     175      PMPE     HN2      HCL      0.330000       1.00800           0
     21733 MEMB     175      PMPE     HN3      HCL      0.330000       1.00800           0
     21734 MEMB     175      PMPE     C12      CTL2     0.130000       12.0110           0
     21735 MEMB     175      PMPE     H12A     HAL2     0.900000E-01   1.00800           0
     21736 MEMB     175      PMPE     H12B     HAL2     0.900000E-01   1.00800           0
     21737 MEMB     175      PMPE     C11      CTL2    -0.800000E-01   12.0110           0
     21738 MEMB     175      PMPE     H11A     HAL2     0.900000E-01   1.00800           0
     21739 MEMB     175      PMPE     H11B     HAL2     0.900000E-01   1.00800           0
     21740 MEMB     175      PMPE     P        PL        1.50000       30.9740           0
     21741 MEMB     175      PMPE     O13      O2L     -0.780000       15.9994           0
     21742 MEMB     175      PMPE     O14      O2L     -0.780000       15.9994           0
     21743 MEMB     175      PMPE     O11      OSLP    -0.570000       15.9994           0
     21744 MEMB     175      PMPE     O12      OSLP    -0.570000       15.9994           0
     21745 MEMB     175      PMPE     C1       CTL2    -0.800000E-01   12.0110           0
     21746 MEMB     175      PMPE     HA       HAL2     0.900000E-01   1.00800           0
     21747 MEMB     175      PMPE     HB       HAL2     0.900000E-01   1.00800           0
     21748 MEMB     175      PMPE     C2       CTL1     0.170000       12.0110           0
     21749 MEMB     175      PMPE     HS       HAL1     0.900000E-01   1.00800           0
     21750 MEMB     175      PMPE     O21      OSL     -0.490000       15.9994           0
     21751 MEMB     175      PMPE     C21      CL       0.900000       12.0110           0
     21752 MEMB     175      PMPE     O22      OBL     -0.630000       15.9994           0
     21753 MEMB     175      PMPE     C22      CTL2    -0.220000       12.0110           0
     21754 MEMB     175      PMPE     H2R      HAL2     0.900000E-01   1.00800           0
     21755 MEMB     175      PMPE     H2S      HAL2     0.900000E-01   1.00800           0
     21756 MEMB     175      PMPE     C3       CTL2     0.800000E-01   12.0110           0
     21757 MEMB     175      PMPE     HX       HAL2     0.900000E-01   1.00800           0
     21758 MEMB     175      PMPE     HY       HAL2     0.900000E-01   1.00800           0
     21759 MEMB     175      PMPE     O31      OSL     -0.490000       15.9994           0
     21760 MEMB     175      PMPE     C31      CL       0.900000       12.0110           0
     21761 MEMB     175      PMPE     O32      OBL     -0.630000       15.9994           0
     21762 MEMB     175      PMPE     C32      CTL2    -0.220000       12.0110           0
     21763 MEMB     175      PMPE     H2X      HAL2     0.900000E-01   1.00800           0
     21764 MEMB     175      PMPE     H2Y      HAL2     0.900000E-01   1.00800           0
     21765 MEMB     175      PMPE     C23      CTL2    -0.180000       12.0110           0
     21766 MEMB     175      PMPE     H3R      HAL2     0.900000E-01   1.00800           0
     21767 MEMB     175      PMPE     H3S      HAL2     0.900000E-01   1.00800           0
     21768 MEMB     175      PMPE     C24      CTL2    -0.180000       12.0110           0
     21769 MEMB     175      PMPE     H4R      HAL2     0.900000E-01   1.00800           0
     21770 MEMB     175      PMPE     H4S      HAL2     0.900000E-01   1.00800           0
     21771 MEMB     175      PMPE     C25      CTL2    -0.180000       12.0110           0
     21772 MEMB     175      PMPE     H5R      HAL2     0.900000E-01   1.00800           0
     21773 MEMB     175      PMPE     H5S      HAL2     0.900000E-01   1.00800           0
     21774 MEMB     175      PMPE     C26      CTL2    -0.180000       12.0110           0
     21775 MEMB     175      PMPE     H6R      HAL2     0.900000E-01   1.00800           0
     21776 MEMB     175      PMPE     H6S      HAL2     0.900000E-01   1.00800           0
     21777 MEMB     175      PMPE     C27      CTL2    -0.180000       12.0110           0
     21778 MEMB     175      PMPE     H7R      HAL2     0.900000E-01   1.00800           0
     21779 MEMB     175      PMPE     H7S      HAL2     0.900000E-01   1.00800           0
     21780 MEMB     175      PMPE     C28      CTL2    -0.180000       12.0110           0
     21781 MEMB     175      PMPE     H8R      HAL2     0.900000E-01   1.00800           0
     21782 MEMB     175      PMPE     H8S      HAL2     0.900000E-01   1.00800           0
     21783 MEMB     175      PMPE     C29      CG3RC1  -0.900000E-01   12.0110           0
     21784 MEMB     175      PMPE     H9R      HGA1     0.900000E-01   1.00800           0
     21785 MEMB     175      PMPE     C217     CG3C31  -0.180000       12.0110           0
     21786 MEMB     175      PMPE     H17R     HGA2     0.900000E-01   1.00800           0
     21787 MEMB     175      PMPE     H17S     HGA2     0.900000E-01   1.00800           0
     21788 MEMB     175      PMPE     C210     CG3RC1  -0.900000E-01   12.0110           0
     21789 MEMB     175      PMPE     H10R     HGA1     0.900000E-01   1.00800           0
     21790 MEMB     175      PMPE     C211     CTL2    -0.180000       12.0110           0
     21791 MEMB     175      PMPE     H11R     HAL2     0.900000E-01   1.00800           0
     21792 MEMB     175      PMPE     H11S     HAL2     0.900000E-01   1.00800           0
     21793 MEMB     175      PMPE     C212     CTL2    -0.180000       12.0110           0
     21794 MEMB     175      PMPE     H12R     HAL2     0.900000E-01   1.00800           0
     21795 MEMB     175      PMPE     H12S     HAL2     0.900000E-01   1.00800           0
     21796 MEMB     175      PMPE     C213     CTL2    -0.180000       12.0110           0
     21797 MEMB     175      PMPE     H13R     HAL2     0.900000E-01   1.00800           0
     21798 MEMB     175      PMPE     H13S     HAL2     0.900000E-01   1.00800           0
     21799 MEMB     175      PMPE     C214     CTL2    -0.180000       12.0110           0
     21800 MEMB     175      PMPE     H14R     HAL2     0.900000E-01   1.00800           0
     21801 MEMB     175      PMPE     H14S     HAL2     0.900000E-01   1.00800           0
     21802 MEMB     175      PMPE     C215     CTL2    -0.180000       12.0110           0
     21803 MEMB     175      PMPE     H15R     HAL2     0.900000E-01   1.00800           0
     21804 MEMB     175      PMPE     H15S     HAL2     0.900000E-01   1.00800           0
     21805 MEMB     175      PMPE     C216     CTL3    -0.270000       12.0110           0
     21806 MEMB     175      PMPE     H16R     HAL3     0.900000E-01   1.00800           0
     21807 MEMB     175      PMPE     H16S     HAL3     0.900000E-01   1.00800           0
     21808 MEMB     175      PMPE     H16T     HAL3     0.900000E-01   1.00800           0
     21809 MEMB     175      PMPE     C33      CTL2    -0.180000       12.0110           0
     21810 MEMB     175      PMPE     H3X      HAL2     0.900000E-01   1.00800           0
     21811 MEMB     175      PMPE     H3Y      HAL2     0.900000E-01   1.00800           0
     21812 MEMB     175      PMPE     C34      CTL2    -0.180000       12.0110           0
     21813 MEMB     175      PMPE     H4X      HAL2     0.900000E-01   1.00800           0
     21814 MEMB     175      PMPE     H4Y      HAL2     0.900000E-01   1.00800           0
     21815 MEMB     175      PMPE     C35      CTL2    -0.180000       12.0110           0
     21816 MEMB     175      PMPE     H5X      HAL2     0.900000E-01   1.00800           0
     21817 MEMB     175      PMPE     H5Y      HAL2     0.900000E-01   1.00800           0
     21818 MEMB     175      PMPE     C36      CTL2    -0.180000       12.0110           0
     21819 MEMB     175      PMPE     H6X      HAL2     0.900000E-01   1.00800           0
     21820 MEMB     175      PMPE     H6Y      HAL2     0.900000E-01   1.00800           0
     21821 MEMB     175      PMPE     C37      CTL2    -0.180000       12.0110           0
     21822 MEMB     175      PMPE     H7X      HAL2     0.900000E-01   1.00800           0
     21823 MEMB     175      PMPE     H7Y      HAL2     0.900000E-01   1.00800           0
     21824 MEMB     175      PMPE     C38      CTL2    -0.180000       12.0110           0
     21825 MEMB     175      PMPE     H8X      HAL2     0.900000E-01   1.00800           0
     21826 MEMB     175      PMPE     H8Y      HAL2     0.900000E-01   1.00800           0
     21827 MEMB     175      PMPE     C39      CTL2    -0.180000       12.0110           0
     21828 MEMB     175      PMPE     H9X      HAL2     0.900000E-01   1.00800           0
     21829 MEMB     175      PMPE     H9Y      HAL2     0.900000E-01   1.00800           0
     21830 MEMB     175      PMPE     C310     CTL2    -0.180000       12.0110           0
     21831 MEMB     175      PMPE     H10X     HAL2     0.900000E-01   1.00800           0
     21832 MEMB     175      PMPE     H10Y     HAL2     0.900000E-01   1.00800           0
     21833 MEMB     175      PMPE     C311     CTL2    -0.180000       12.0110           0
     21834 MEMB     175      PMPE     H11X     HAL2     0.900000E-01   1.00800           0
     21835 MEMB     175      PMPE     H11Y     HAL2     0.900000E-01   1.00800           0
     21836 MEMB     175      PMPE     C312     CTL2    -0.180000       12.0110           0
     21837 MEMB     175      PMPE     H12X     HAL2     0.900000E-01   1.00800           0
     21838 MEMB     175      PMPE     H12Y     HAL2     0.900000E-01   1.00800           0
     21839 MEMB     175      PMPE     C313     CTL2    -0.180000       12.0110           0
     21840 MEMB     175      PMPE     H13X     HAL2     0.900000E-01   1.00800           0
     21841 MEMB     175      PMPE     H13Y     HAL2     0.900000E-01   1.00800           0
     21842 MEMB     175      PMPE     C314     CTL2    -0.180000       12.0110           0
     21843 MEMB     175      PMPE     H14X     HAL2     0.900000E-01   1.00800           0
     21844 MEMB     175      PMPE     H14Y     HAL2     0.900000E-01   1.00800           0
     21845 MEMB     175      PMPE     C315     CTL2    -0.180000       12.0110           0
     21846 MEMB     175      PMPE     H15X     HAL2     0.900000E-01   1.00800           0
     21847 MEMB     175      PMPE     H15Y     HAL2     0.900000E-01   1.00800           0
     21848 MEMB     175      PMPE     C316     CTL3    -0.270000       12.0110           0
     21849 MEMB     175      PMPE     H16X     HAL3     0.900000E-01   1.00800           0
     21850 MEMB     175      PMPE     H16Y     HAL3     0.900000E-01   1.00800           0
     21851 MEMB     175      PMPE     H16Z     HAL3     0.900000E-01   1.00800           0
     21852 MEMB     176      POPE     N        NH3L    -0.300000       14.0070           0
     21853 MEMB     176      POPE     HN1      HCL      0.330000       1.00800           0
     21854 MEMB     176      POPE     HN2      HCL      0.330000       1.00800           0
     21855 MEMB     176      POPE     HN3      HCL      0.330000       1.00800           0
     21856 MEMB     176      POPE     C12      CTL2     0.130000       12.0110           0
     21857 MEMB     176      POPE     H12A     HAL2     0.900000E-01   1.00800           0
     21858 MEMB     176      POPE     H12B     HAL2     0.900000E-01   1.00800           0
     21859 MEMB     176      POPE     C11      CTL2    -0.800000E-01   12.0110           0
     21860 MEMB     176      POPE     H11A     HAL2     0.900000E-01   1.00800           0
     21861 MEMB     176      POPE     H11B     HAL2     0.900000E-01   1.00800           0
     21862 MEMB     176      POPE     P        PL        1.50000       30.9740           0
     21863 MEMB     176      POPE     O13      O2L     -0.780000       15.9994           0
     21864 MEMB     176      POPE     O14      O2L     -0.780000       15.9994           0
     21865 MEMB     176      POPE     O11      OSLP    -0.570000       15.9994           0
     21866 MEMB     176      POPE     O12      OSLP    -0.570000       15.9994           0
     21867 MEMB     176      POPE     C1       CTL2    -0.800000E-01   12.0110           0
     21868 MEMB     176      POPE     HA       HAL2     0.900000E-01   1.00800           0
     21869 MEMB     176      POPE     HB       HAL2     0.900000E-01   1.00800           0
     21870 MEMB     176      POPE     C2       CTL1     0.170000       12.0110           0
     21871 MEMB     176      POPE     HS       HAL1     0.900000E-01   1.00800           0
     21872 MEMB     176      POPE     O21      OSL     -0.490000       15.9994           0
     21873 MEMB     176      POPE     C21      CL       0.900000       12.0110           0
     21874 MEMB     176      POPE     O22      OBL     -0.630000       15.9994           0
     21875 MEMB     176      POPE     C22      CTL2    -0.220000       12.0110           0
     21876 MEMB     176      POPE     H2R      HAL2     0.900000E-01   1.00800           0
     21877 MEMB     176      POPE     H2S      HAL2     0.900000E-01   1.00800           0
     21878 MEMB     176      POPE     C3       CTL2     0.800000E-01   12.0110           0
     21879 MEMB     176      POPE     HX       HAL2     0.900000E-01   1.00800           0
     21880 MEMB     176      POPE     HY       HAL2     0.900000E-01   1.00800           0
     21881 MEMB     176      POPE     O31      OSL     -0.490000       15.9994           0
     21882 MEMB     176      POPE     C31      CL       0.900000       12.0110           0
     21883 MEMB     176      POPE     O32      OBL     -0.630000       15.9994           0
     21884 MEMB     176      POPE     C32      CTL2    -0.220000       12.0110           0
     21885 MEMB     176      POPE     H2X      HAL2     0.900000E-01   1.00800           0
     21886 MEMB     176      POPE     H2Y      HAL2     0.900000E-01   1.00800           0
     21887 MEMB     176      POPE     C23      CTL2    -0.180000       12.0110           0
     21888 MEMB     176      POPE     H3R      HAL2     0.900000E-01   1.00800           0
     21889 MEMB     176      POPE     H3S      HAL2     0.900000E-01   1.00800           0
     21890 MEMB     176      POPE     C24      CTL2    -0.180000       12.0110           0
     21891 MEMB     176      POPE     H4R      HAL2     0.900000E-01   1.00800           0
     21892 MEMB     176      POPE     H4S      HAL2     0.900000E-01   1.00800           0
     21893 MEMB     176      POPE     C25      CTL2    -0.180000       12.0110           0
     21894 MEMB     176      POPE     H5R      HAL2     0.900000E-01   1.00800           0
     21895 MEMB     176      POPE     H5S      HAL2     0.900000E-01   1.00800           0
     21896 MEMB     176      POPE     C26      CTL2    -0.180000       12.0110           0
     21897 MEMB     176      POPE     H6R      HAL2     0.900000E-01   1.00800           0
     21898 MEMB     176      POPE     H6S      HAL2     0.900000E-01   1.00800           0
     21899 MEMB     176      POPE     C27      CTL2    -0.180000       12.0110           0
     21900 MEMB     176      POPE     H7R      HAL2     0.900000E-01   1.00800           0
     21901 MEMB     176      POPE     H7S      HAL2     0.900000E-01   1.00800           0
     21902 MEMB     176      POPE     C28      CTL2    -0.180000       12.0110           0
     21903 MEMB     176      POPE     H8R      HAL2     0.900000E-01   1.00800           0
     21904 MEMB     176      POPE     H8S      HAL2     0.900000E-01   1.00800           0
     21905 MEMB     176      POPE     C29      CEL1    -0.150000       12.0110           0
     21906 MEMB     176      POPE     H91      HEL1     0.150000       1.00800           0
     21907 MEMB     176      POPE     C210     CEL1    -0.150000       12.0110           0
     21908 MEMB     176      POPE     H101     HEL1     0.150000       1.00800           0
     21909 MEMB     176      POPE     C211     CTL2    -0.180000       12.0110           0
     21910 MEMB     176      POPE     H11R     HAL2     0.900000E-01   1.00800           0
     21911 MEMB     176      POPE     H11S     HAL2     0.900000E-01   1.00800           0
     21912 MEMB     176      POPE     C212     CTL2    -0.180000       12.0110           0
     21913 MEMB     176      POPE     H12R     HAL2     0.900000E-01   1.00800           0
     21914 MEMB     176      POPE     H12S     HAL2     0.900000E-01   1.00800           0
     21915 MEMB     176      POPE     C213     CTL2    -0.180000       12.0110           0
     21916 MEMB     176      POPE     H13R     HAL2     0.900000E-01   1.00800           0
     21917 MEMB     176      POPE     H13S     HAL2     0.900000E-01   1.00800           0
     21918 MEMB     176      POPE     C214     CTL2    -0.180000       12.0110           0
     21919 MEMB     176      POPE     H14R     HAL2     0.900000E-01   1.00800           0
     21920 MEMB     176      POPE     H14S     HAL2     0.900000E-01   1.00800           0
     21921 MEMB     176      POPE     C215     CTL2    -0.180000       12.0110           0
     21922 MEMB     176      POPE     H15R     HAL2     0.900000E-01   1.00800           0
     21923 MEMB     176      POPE     H15S     HAL2     0.900000E-01   1.00800           0
     21924 MEMB     176      POPE     C216     CTL2    -0.180000       12.0110           0
     21925 MEMB     176      POPE     H16R     HAL2     0.900000E-01   1.00800           0
     21926 MEMB     176      POPE     H16S     HAL2     0.900000E-01   1.00800           0
     21927 MEMB     176      POPE     C217     CTL2    -0.180000       12.0110           0
     21928 MEMB     176      POPE     H17R     HAL2     0.900000E-01   1.00800           0
     21929 MEMB     176      POPE     H17S     HAL2     0.900000E-01   1.00800           0
     21930 MEMB     176      POPE     C218     CTL3    -0.270000       12.0110           0
     21931 MEMB     176      POPE     H18R     HAL3     0.900000E-01   1.00800           0
     21932 MEMB     176      POPE     H18S     HAL3     0.900000E-01   1.00800           0
     21933 MEMB     176      POPE     H18T     HAL3     0.900000E-01   1.00800           0
     21934 MEMB     176      POPE     C33      CTL2    -0.180000       12.0110           0
     21935 MEMB     176      POPE     H3X      HAL2     0.900000E-01   1.00800           0
     21936 MEMB     176      POPE     H3Y      HAL2     0.900000E-01   1.00800           0
     21937 MEMB     176      POPE     C34      CTL2    -0.180000       12.0110           0
     21938 MEMB     176      POPE     H4X      HAL2     0.900000E-01   1.00800           0
     21939 MEMB     176      POPE     H4Y      HAL2     0.900000E-01   1.00800           0
     21940 MEMB     176      POPE     C35      CTL2    -0.180000       12.0110           0
     21941 MEMB     176      POPE     H5X      HAL2     0.900000E-01   1.00800           0
     21942 MEMB     176      POPE     H5Y      HAL2     0.900000E-01   1.00800           0
     21943 MEMB     176      POPE     C36      CTL2    -0.180000       12.0110           0
     21944 MEMB     176      POPE     H6X      HAL2     0.900000E-01   1.00800           0
     21945 MEMB     176      POPE     H6Y      HAL2     0.900000E-01   1.00800           0
     21946 MEMB     176      POPE     C37      CTL2    -0.180000       12.0110           0
     21947 MEMB     176      POPE     H7X      HAL2     0.900000E-01   1.00800           0
     21948 MEMB     176      POPE     H7Y      HAL2     0.900000E-01   1.00800           0
     21949 MEMB     176      POPE     C38      CTL2    -0.180000       12.0110           0
     21950 MEMB     176      POPE     H8X      HAL2     0.900000E-01   1.00800           0
     21951 MEMB     176      POPE     H8Y      HAL2     0.900000E-01   1.00800           0
     21952 MEMB     176      POPE     C39      CTL2    -0.180000       12.0110           0
     21953 MEMB     176      POPE     H9X      HAL2     0.900000E-01   1.00800           0
     21954 MEMB     176      POPE     H9Y      HAL2     0.900000E-01   1.00800           0
     21955 MEMB     176      POPE     C310     CTL2    -0.180000       12.0110           0
     21956 MEMB     176      POPE     H10X     HAL2     0.900000E-01   1.00800           0
     21957 MEMB     176      POPE     H10Y     HAL2     0.900000E-01   1.00800           0
     21958 MEMB     176      POPE     C311     CTL2    -0.180000       12.0110           0
     21959 MEMB     176      POPE     H11X     HAL2     0.900000E-01   1.00800           0
     21960 MEMB     176      POPE     H11Y     HAL2     0.900000E-01   1.00800           0
     21961 MEMB     176      POPE     C312     CTL2    -0.180000       12.0110           0
     21962 MEMB     176      POPE     H12X     HAL2     0.900000E-01   1.00800           0
     21963 MEMB     176      POPE     H12Y     HAL2     0.900000E-01   1.00800           0
     21964 MEMB     176      POPE     C313     CTL2    -0.180000       12.0110           0
     21965 MEMB     176      POPE     H13X     HAL2     0.900000E-01   1.00800           0
     21966 MEMB     176      POPE     H13Y     HAL2     0.900000E-01   1.00800           0
     21967 MEMB     176      POPE     C314     CTL2    -0.180000       12.0110           0
     21968 MEMB     176      POPE     H14X     HAL2     0.900000E-01   1.00800           0
     21969 MEMB     176      POPE     H14Y     HAL2     0.900000E-01   1.00800           0
     21970 MEMB     176      POPE     C315     CTL2    -0.180000       12.0110           0
     21971 MEMB     176      POPE     H15X     HAL2     0.900000E-01   1.00800           0
     21972 MEMB     176      POPE     H15Y     HAL2     0.900000E-01   1.00800           0
     21973 MEMB     176      POPE     C316     CTL3    -0.270000       12.0110           0
     21974 MEMB     176      POPE     H16X     HAL3     0.900000E-01   1.00800           0
     21975 MEMB     176      POPE     H16Y     HAL3     0.900000E-01   1.00800           0
     21976 MEMB     176      POPE     H16Z     HAL3     0.900000E-01   1.00800           0
     21977 MEMB     177      OYPE     N        NH3L    -0.300000       14.0070           0
     21978 MEMB     177      OYPE     HN1      HCL      0.330000       1.00800           0
     21979 MEMB     177      OYPE     HN2      HCL      0.330000       1.00800           0
     21980 MEMB     177      OYPE     HN3      HCL      0.330000       1.00800           0
     21981 MEMB     177      OYPE     C12      CTL2     0.130000       12.0110           0
     21982 MEMB     177      OYPE     H12A     HAL2     0.900000E-01   1.00800           0
     21983 MEMB     177      OYPE     H12B     HAL2     0.900000E-01   1.00800           0
     21984 MEMB     177      OYPE     C11      CTL2    -0.800000E-01   12.0110           0
     21985 MEMB     177      OYPE     H11A     HAL2     0.900000E-01   1.00800           0
     21986 MEMB     177      OYPE     H11B     HAL2     0.900000E-01   1.00800           0
     21987 MEMB     177      OYPE     P        PL        1.50000       30.9740           0
     21988 MEMB     177      OYPE     O13      O2L     -0.780000       15.9994           0
     21989 MEMB     177      OYPE     O14      O2L     -0.780000       15.9994           0
     21990 MEMB     177      OYPE     O11      OSLP    -0.570000       15.9994           0
     21991 MEMB     177      OYPE     O12      OSLP    -0.570000       15.9994           0
     21992 MEMB     177      OYPE     C1       CTL2    -0.800000E-01   12.0110           0
     21993 MEMB     177      OYPE     HA       HAL2     0.900000E-01   1.00800           0
     21994 MEMB     177      OYPE     HB       HAL2     0.900000E-01   1.00800           0
     21995 MEMB     177      OYPE     C2       CTL1     0.170000       12.0110           0
     21996 MEMB     177      OYPE     HS       HAL1     0.900000E-01   1.00800           0
     21997 MEMB     177      OYPE     O21      OSL     -0.490000       15.9994           0
     21998 MEMB     177      OYPE     C21      CL       0.900000       12.0110           0
     21999 MEMB     177      OYPE     O22      OBL     -0.630000       15.9994           0
     22000 MEMB     177      OYPE     C22      CTL2    -0.220000       12.0110           0
     22001 MEMB     177      OYPE     H2R      HAL2     0.900000E-01   1.00800           0
     22002 MEMB     177      OYPE     H2S      HAL2     0.900000E-01   1.00800           0
     22003 MEMB     177      OYPE     C3       CTL2     0.800000E-01   12.0110           0
     22004 MEMB     177      OYPE     HX       HAL2     0.900000E-01   1.00800           0
     22005 MEMB     177      OYPE     HY       HAL2     0.900000E-01   1.00800           0
     22006 MEMB     177      OYPE     O31      OSL     -0.490000       15.9994           0
     22007 MEMB     177      OYPE     C31      CL       0.900000       12.0110           0
     22008 MEMB     177      OYPE     O32      OBL     -0.630000       15.9994           0
     22009 MEMB     177      OYPE     C32      CTL2    -0.220000       12.0110           0
     22010 MEMB     177      OYPE     H2X      HAL2     0.900000E-01   1.00800           0
     22011 MEMB     177      OYPE     H2Y      HAL2     0.900000E-01   1.00800           0
     22012 MEMB     177      OYPE     C23      CTL2    -0.180000       12.0110           0
     22013 MEMB     177      OYPE     H3R      HAL2     0.900000E-01   1.00800           0
     22014 MEMB     177      OYPE     H3S      HAL2     0.900000E-01   1.00800           0
     22015 MEMB     177      OYPE     C24      CTL2    -0.180000       12.0110           0
     22016 MEMB     177      OYPE     H4R      HAL2     0.900000E-01   1.00800           0
     22017 MEMB     177      OYPE     H4S      HAL2     0.900000E-01   1.00800           0
     22018 MEMB     177      OYPE     C25      CTL2    -0.180000       12.0110           0
     22019 MEMB     177      OYPE     H5R      HAL2     0.900000E-01   1.00800           0
     22020 MEMB     177      OYPE     H5S      HAL2     0.900000E-01   1.00800           0
     22021 MEMB     177      OYPE     C26      CTL2    -0.180000       12.0110           0
     22022 MEMB     177      OYPE     H6R      HAL2     0.900000E-01   1.00800           0
     22023 MEMB     177      OYPE     H6S      HAL2     0.900000E-01   1.00800           0
     22024 MEMB     177      OYPE     C27      CTL2    -0.180000       12.0110           0
     22025 MEMB     177      OYPE     H7R      HAL2     0.900000E-01   1.00800           0
     22026 MEMB     177      OYPE     H7S      HAL2     0.900000E-01   1.00800           0
     22027 MEMB     177      OYPE     C28      CTL2    -0.180000       12.0110           0
     22028 MEMB     177      OYPE     H8R      HAL2     0.900000E-01   1.00800           0
     22029 MEMB     177      OYPE     H8S      HAL2     0.900000E-01   1.00800           0
     22030 MEMB     177      OYPE     C29      CEL1    -0.150000       12.0110           0
     22031 MEMB     177      OYPE     H9R      HEL1     0.150000       1.00800           0
     22032 MEMB     177      OYPE     C210     CEL1    -0.150000       12.0110           0
     22033 MEMB     177      OYPE     H10R     HEL1     0.150000       1.00800           0
     22034 MEMB     177      OYPE     C211     CTL2    -0.180000       12.0110           0
     22035 MEMB     177      OYPE     H11R     HAL2     0.900000E-01   1.00800           0
     22036 MEMB     177      OYPE     H11S     HAL2     0.900000E-01   1.00800           0
     22037 MEMB     177      OYPE     C212     CTL2    -0.180000       12.0110           0
     22038 MEMB     177      OYPE     H12R     HAL2     0.900000E-01   1.00800           0
     22039 MEMB     177      OYPE     H12S     HAL2     0.900000E-01   1.00800           0
     22040 MEMB     177      OYPE     C213     CTL2    -0.180000       12.0110           0
     22041 MEMB     177      OYPE     H13R     HAL2     0.900000E-01   1.00800           0
     22042 MEMB     177      OYPE     H13S     HAL2     0.900000E-01   1.00800           0
     22043 MEMB     177      OYPE     C214     CTL2    -0.180000       12.0110           0
     22044 MEMB     177      OYPE     H14R     HAL2     0.900000E-01   1.00800           0
     22045 MEMB     177      OYPE     H14S     HAL2     0.900000E-01   1.00800           0
     22046 MEMB     177      OYPE     C215     CTL2    -0.180000       12.0110           0
     22047 MEMB     177      OYPE     H15R     HAL2     0.900000E-01   1.00800           0
     22048 MEMB     177      OYPE     H15S     HAL2     0.900000E-01   1.00800           0
     22049 MEMB     177      OYPE     C216     CTL3    -0.270000       12.0110           0
     22050 MEMB     177      OYPE     H16R     HAL3     0.900000E-01   1.00800           0
     22051 MEMB     177      OYPE     H16S     HAL3     0.900000E-01   1.00800           0
     22052 MEMB     177      OYPE     H16T     HAL3     0.900000E-01   1.00800           0
     22053 MEMB     177      OYPE     C33      CTL2    -0.180000       12.0110           0
     22054 MEMB     177      OYPE     H3X      HAL2     0.900000E-01   1.00800           0
     22055 MEMB     177      OYPE     H3Y      HAL2     0.900000E-01   1.00800           0
     22056 MEMB     177      OYPE     C34      CTL2    -0.180000       12.0110           0
     22057 MEMB     177      OYPE     H4X      HAL2     0.900000E-01   1.00800           0
     22058 MEMB     177      OYPE     H4Y      HAL2     0.900000E-01   1.00800           0
     22059 MEMB     177      OYPE     C35      CTL2    -0.180000       12.0110           0
     22060 MEMB     177      OYPE     H5X      HAL2     0.900000E-01   1.00800           0
     22061 MEMB     177      OYPE     H5Y      HAL2     0.900000E-01   1.00800           0
     22062 MEMB     177      OYPE     C36      CTL2    -0.180000       12.0110           0
     22063 MEMB     177      OYPE     H6X      HAL2     0.900000E-01   1.00800           0
     22064 MEMB     177      OYPE     H6Y      HAL2     0.900000E-01   1.00800           0
     22065 MEMB     177      OYPE     C37      CTL2    -0.180000       12.0110           0
     22066 MEMB     177      OYPE     H7X      HAL2     0.900000E-01   1.00800           0
     22067 MEMB     177      OYPE     H7Y      HAL2     0.900000E-01   1.00800           0
     22068 MEMB     177      OYPE     C38      CTL2    -0.180000       12.0110           0
     22069 MEMB     177      OYPE     H8X      HAL2     0.900000E-01   1.00800           0
     22070 MEMB     177      OYPE     H8Y      HAL2     0.900000E-01   1.00800           0
     22071 MEMB     177      OYPE     C39      CEL1    -0.150000       12.0110           0
     22072 MEMB     177      OYPE     H9X      HEL1     0.150000       1.00800           0
     22073 MEMB     177      OYPE     C310     CEL1    -0.150000       12.0110           0
     22074 MEMB     177      OYPE     H10X     HEL1     0.150000       1.00800           0
     22075 MEMB     177      OYPE     C311     CTL2    -0.180000       12.0110           0
     22076 MEMB     177      OYPE     H11X     HAL2     0.900000E-01   1.00800           0
     22077 MEMB     177      OYPE     H11Y     HAL2     0.900000E-01   1.00800           0
     22078 MEMB     177      OYPE     C312     CTL2    -0.180000       12.0110           0
     22079 MEMB     177      OYPE     H12X     HAL2     0.900000E-01   1.00800           0
     22080 MEMB     177      OYPE     H12Y     HAL2     0.900000E-01   1.00800           0
     22081 MEMB     177      OYPE     C313     CTL2    -0.180000       12.0110           0
     22082 MEMB     177      OYPE     H13X     HAL2     0.900000E-01   1.00800           0
     22083 MEMB     177      OYPE     H13Y     HAL2     0.900000E-01   1.00800           0
     22084 MEMB     177      OYPE     C314     CTL2    -0.180000       12.0110           0
     22085 MEMB     177      OYPE     H14X     HAL2     0.900000E-01   1.00800           0
     22086 MEMB     177      OYPE     H14Y     HAL2     0.900000E-01   1.00800           0
     22087 MEMB     177      OYPE     C315     CTL2    -0.180000       12.0110           0
     22088 MEMB     177      OYPE     H15X     HAL2     0.900000E-01   1.00800           0
     22089 MEMB     177      OYPE     H15Y     HAL2     0.900000E-01   1.00800           0
     22090 MEMB     177      OYPE     C316     CTL2    -0.180000       12.0110           0
     22091 MEMB     177      OYPE     H16X     HAL2     0.900000E-01   1.00800           0
     22092 MEMB     177      OYPE     H16Y     HAL2     0.900000E-01   1.00800           0
     22093 MEMB     177      OYPE     C317     CTL2    -0.180000       12.0110           0
     22094 MEMB     177      OYPE     H17X     HAL2     0.900000E-01   1.00800           0
     22095 MEMB     177      OYPE     H17Y     HAL2     0.900000E-01   1.00800           0
     22096 MEMB     177      OYPE     C318     CTL3    -0.270000       12.0110           0
     22097 MEMB     177      OYPE     H18X     HAL3     0.900000E-01   1.00800           0
     22098 MEMB     177      OYPE     H18Y     HAL3     0.900000E-01   1.00800           0
     22099 MEMB     177      OYPE     H18Z     HAL3     0.900000E-01   1.00800           0
     22100 MEMB     178      QMPE     N        NH3L    -0.300000       14.0070           0
     22101 MEMB     178      QMPE     HN1      HCL      0.330000       1.00800           0
     22102 MEMB     178      QMPE     HN2      HCL      0.330000       1.00800           0
     22103 MEMB     178      QMPE     HN3      HCL      0.330000       1.00800           0
     22104 MEMB     178      QMPE     C12      CTL2     0.130000       12.0110           0
     22105 MEMB     178      QMPE     H12A     HAL2     0.900000E-01   1.00800           0
     22106 MEMB     178      QMPE     H12B     HAL2     0.900000E-01   1.00800           0
     22107 MEMB     178      QMPE     C11      CTL2    -0.800000E-01   12.0110           0
     22108 MEMB     178      QMPE     H11A     HAL2     0.900000E-01   1.00800           0
     22109 MEMB     178      QMPE     H11B     HAL2     0.900000E-01   1.00800           0
     22110 MEMB     178      QMPE     P        PL        1.50000       30.9740           0
     22111 MEMB     178      QMPE     O13      O2L     -0.780000       15.9994           0
     22112 MEMB     178      QMPE     O14      O2L     -0.780000       15.9994           0
     22113 MEMB     178      QMPE     O11      OSLP    -0.570000       15.9994           0
     22114 MEMB     178      QMPE     O12      OSLP    -0.570000       15.9994           0
     22115 MEMB     178      QMPE     C1       CTL2    -0.800000E-01   12.0110           0
     22116 MEMB     178      QMPE     HA       HAL2     0.900000E-01   1.00800           0
     22117 MEMB     178      QMPE     HB       HAL2     0.900000E-01   1.00800           0
     22118 MEMB     178      QMPE     C2       CTL1     0.170000       12.0110           0
     22119 MEMB     178      QMPE     HS       HAL1     0.900000E-01   1.00800           0
     22120 MEMB     178      QMPE     O21      OSL     -0.490000       15.9994           0
     22121 MEMB     178      QMPE     C21      CL       0.900000       12.0110           0
     22122 MEMB     178      QMPE     O22      OBL     -0.630000       15.9994           0
     22123 MEMB     178      QMPE     C22      CTL2    -0.220000       12.0110           0
     22124 MEMB     178      QMPE     H2R      HAL2     0.900000E-01   1.00800           0
     22125 MEMB     178      QMPE     H2S      HAL2     0.900000E-01   1.00800           0
     22126 MEMB     178      QMPE     C3       CTL2     0.800000E-01   12.0110           0
     22127 MEMB     178      QMPE     HX       HAL2     0.900000E-01   1.00800           0
     22128 MEMB     178      QMPE     HY       HAL2     0.900000E-01   1.00800           0
     22129 MEMB     178      QMPE     O31      OSL     -0.490000       15.9994           0
     22130 MEMB     178      QMPE     C31      CL       0.900000       12.0110           0
     22131 MEMB     178      QMPE     O32      OBL     -0.630000       15.9994           0
     22132 MEMB     178      QMPE     C32      CTL2    -0.220000       12.0110           0
     22133 MEMB     178      QMPE     H2X      HAL2     0.900000E-01   1.00800           0
     22134 MEMB     178      QMPE     H2Y      HAL2     0.900000E-01   1.00800           0
     22135 MEMB     178      QMPE     C23      CTL2    -0.180000       12.0110           0
     22136 MEMB     178      QMPE     H3R      HAL2     0.900000E-01   1.00800           0
     22137 MEMB     178      QMPE     H3S      HAL2     0.900000E-01   1.00800           0
     22138 MEMB     178      QMPE     C24      CTL2    -0.180000       12.0110           0
     22139 MEMB     178      QMPE     H4R      HAL2     0.900000E-01   1.00800           0
     22140 MEMB     178      QMPE     H4S      HAL2     0.900000E-01   1.00800           0
     22141 MEMB     178      QMPE     C25      CTL2    -0.180000       12.0110           0
     22142 MEMB     178      QMPE     H5R      HAL2     0.900000E-01   1.00800           0
     22143 MEMB     178      QMPE     H5S      HAL2     0.900000E-01   1.00800           0
     22144 MEMB     178      QMPE     C26      CTL2    -0.180000       12.0110           0
     22145 MEMB     178      QMPE     H6R      HAL2     0.900000E-01   1.00800           0
     22146 MEMB     178      QMPE     H6S      HAL2     0.900000E-01   1.00800           0
     22147 MEMB     178      QMPE     C27      CTL2    -0.180000       12.0110           0
     22148 MEMB     178      QMPE     H7R      HAL2     0.900000E-01   1.00800           0
     22149 MEMB     178      QMPE     H7S      HAL2     0.900000E-01   1.00800           0
     22150 MEMB     178      QMPE     C28      CTL2    -0.180000       12.0110           0
     22151 MEMB     178      QMPE     H8R      HAL2     0.900000E-01   1.00800           0
     22152 MEMB     178      QMPE     H8S      HAL2     0.900000E-01   1.00800           0
     22153 MEMB     178      QMPE     C29      CG3RC1  -0.900000E-01   12.0110           0
     22154 MEMB     178      QMPE     H9R      HGA1     0.900000E-01   1.00800           0
     22155 MEMB     178      QMPE     C217     CG3C31  -0.180000       12.0110           0
     22156 MEMB     178      QMPE     H17R     HGA2     0.900000E-01   1.00800           0
     22157 MEMB     178      QMPE     H17S     HGA2     0.900000E-01   1.00800           0
     22158 MEMB     178      QMPE     C210     CG3RC1  -0.900000E-01   12.0110           0
     22159 MEMB     178      QMPE     H10R     HGA1     0.900000E-01   1.00800           0
     22160 MEMB     178      QMPE     C211     CTL2    -0.180000       12.0110           0
     22161 MEMB     178      QMPE     H11R     HAL2     0.900000E-01   1.00800           0
     22162 MEMB     178      QMPE     H11S     HAL2     0.900000E-01   1.00800           0
     22163 MEMB     178      QMPE     C212     CTL2    -0.180000       12.0110           0
     22164 MEMB     178      QMPE     H12R     HAL2     0.900000E-01   1.00800           0
     22165 MEMB     178      QMPE     H12S     HAL2     0.900000E-01   1.00800           0
     22166 MEMB     178      QMPE     C213     CTL2    -0.180000       12.0110           0
     22167 MEMB     178      QMPE     H13R     HAL2     0.900000E-01   1.00800           0
     22168 MEMB     178      QMPE     H13S     HAL2     0.900000E-01   1.00800           0
     22169 MEMB     178      QMPE     C214     CTL2    -0.180000       12.0110           0
     22170 MEMB     178      QMPE     H14R     HAL2     0.900000E-01   1.00800           0
     22171 MEMB     178      QMPE     H14S     HAL2     0.900000E-01   1.00800           0
     22172 MEMB     178      QMPE     C215     CTL2    -0.180000       12.0110           0
     22173 MEMB     178      QMPE     H15R     HAL2     0.900000E-01   1.00800           0
     22174 MEMB     178      QMPE     H15S     HAL2     0.900000E-01   1.00800           0
     22175 MEMB     178      QMPE     C216     CTL3    -0.270000       12.0110           0
     22176 MEMB     178      QMPE     H16R     HAL3     0.900000E-01   1.00800           0
     22177 MEMB     178      QMPE     H16S     HAL3     0.900000E-01   1.00800           0
     22178 MEMB     178      QMPE     H16T     HAL3     0.900000E-01   1.00800           0
     22179 MEMB     178      QMPE     C33      CTL2    -0.180000       12.0110           0
     22180 MEMB     178      QMPE     H3X      HAL2     0.900000E-01   1.00800           0
     22181 MEMB     178      QMPE     H3Y      HAL2     0.900000E-01   1.00800           0
     22182 MEMB     178      QMPE     C34      CTL2    -0.180000       12.0110           0
     22183 MEMB     178      QMPE     H4X      HAL2     0.900000E-01   1.00800           0
     22184 MEMB     178      QMPE     H4Y      HAL2     0.900000E-01   1.00800           0
     22185 MEMB     178      QMPE     C35      CTL2    -0.180000       12.0110           0
     22186 MEMB     178      QMPE     H5X      HAL2     0.900000E-01   1.00800           0
     22187 MEMB     178      QMPE     H5Y      HAL2     0.900000E-01   1.00800           0
     22188 MEMB     178      QMPE     C36      CTL2    -0.180000       12.0110           0
     22189 MEMB     178      QMPE     H6X      HAL2     0.900000E-01   1.00800           0
     22190 MEMB     178      QMPE     H6Y      HAL2     0.900000E-01   1.00800           0
     22191 MEMB     178      QMPE     C37      CTL2    -0.180000       12.0110           0
     22192 MEMB     178      QMPE     H7X      HAL2     0.900000E-01   1.00800           0
     22193 MEMB     178      QMPE     H7Y      HAL2     0.900000E-01   1.00800           0
     22194 MEMB     178      QMPE     C38      CTL2    -0.180000       12.0110           0
     22195 MEMB     178      QMPE     H8X      HAL2     0.900000E-01   1.00800           0
     22196 MEMB     178      QMPE     H8Y      HAL2     0.900000E-01   1.00800           0
     22197 MEMB     178      QMPE     C39      CTL2    -0.180000       12.0110           0
     22198 MEMB     178      QMPE     H9X      HAL2     0.900000E-01   1.00800           0
     22199 MEMB     178      QMPE     H9Y      HAL2     0.900000E-01   1.00800           0
     22200 MEMB     178      QMPE     C310     CTL2    -0.180000       12.0110           0
     22201 MEMB     178      QMPE     H10X     HAL2     0.900000E-01   1.00800           0
     22202 MEMB     178      QMPE     H10Y     HAL2     0.900000E-01   1.00800           0
     22203 MEMB     178      QMPE     C311     CTL2    -0.180000       12.0110           0
     22204 MEMB     178      QMPE     H11X     HAL2     0.900000E-01   1.00800           0
     22205 MEMB     178      QMPE     H11Y     HAL2     0.900000E-01   1.00800           0
     22206 MEMB     178      QMPE     C312     CTL2    -0.180000       12.0110           0
     22207 MEMB     178      QMPE     H12X     HAL2     0.900000E-01   1.00800           0
     22208 MEMB     178      QMPE     H12Y     HAL2     0.900000E-01   1.00800           0
     22209 MEMB     178      QMPE     C313     CTL2    -0.180000       12.0110           0
     22210 MEMB     178      QMPE     H13X     HAL2     0.900000E-01   1.00800           0
     22211 MEMB     178      QMPE     H13Y     HAL2     0.900000E-01   1.00800           0
     22212 MEMB     178      QMPE     C314     CTL2    -0.180000       12.0110           0
     22213 MEMB     178      QMPE     H14X     HAL2     0.900000E-01   1.00800           0
     22214 MEMB     178      QMPE     H14Y     HAL2     0.900000E-01   1.00800           0
     22215 MEMB     178      QMPE     C315     CTL3    -0.270000       12.0110           0
     22216 MEMB     178      QMPE     H15X     HAL3     0.900000E-01   1.00800           0
     22217 MEMB     178      QMPE     H15Y     HAL3     0.900000E-01   1.00800           0
     22218 MEMB     178      QMPE     H15Z     HAL3     0.900000E-01   1.00800           0
     22219 MEMB     179      QMPE     N        NH3L    -0.300000       14.0070           0
     22220 MEMB     179      QMPE     HN1      HCL      0.330000       1.00800           0
     22221 MEMB     179      QMPE     HN2      HCL      0.330000       1.00800           0
     22222 MEMB     179      QMPE     HN3      HCL      0.330000       1.00800           0
     22223 MEMB     179      QMPE     C12      CTL2     0.130000       12.0110           0
     22224 MEMB     179      QMPE     H12A     HAL2     0.900000E-01   1.00800           0
     22225 MEMB     179      QMPE     H12B     HAL2     0.900000E-01   1.00800           0
     22226 MEMB     179      QMPE     C11      CTL2    -0.800000E-01   12.0110           0
     22227 MEMB     179      QMPE     H11A     HAL2     0.900000E-01   1.00800           0
     22228 MEMB     179      QMPE     H11B     HAL2     0.900000E-01   1.00800           0
     22229 MEMB     179      QMPE     P        PL        1.50000       30.9740           0
     22230 MEMB     179      QMPE     O13      O2L     -0.780000       15.9994           0
     22231 MEMB     179      QMPE     O14      O2L     -0.780000       15.9994           0
     22232 MEMB     179      QMPE     O11      OSLP    -0.570000       15.9994           0
     22233 MEMB     179      QMPE     O12      OSLP    -0.570000       15.9994           0
     22234 MEMB     179      QMPE     C1       CTL2    -0.800000E-01   12.0110           0
     22235 MEMB     179      QMPE     HA       HAL2     0.900000E-01   1.00800           0
     22236 MEMB     179      QMPE     HB       HAL2     0.900000E-01   1.00800           0
     22237 MEMB     179      QMPE     C2       CTL1     0.170000       12.0110           0
     22238 MEMB     179      QMPE     HS       HAL1     0.900000E-01   1.00800           0
     22239 MEMB     179      QMPE     O21      OSL     -0.490000       15.9994           0
     22240 MEMB     179      QMPE     C21      CL       0.900000       12.0110           0
     22241 MEMB     179      QMPE     O22      OBL     -0.630000       15.9994           0
     22242 MEMB     179      QMPE     C22      CTL2    -0.220000       12.0110           0
     22243 MEMB     179      QMPE     H2R      HAL2     0.900000E-01   1.00800           0
     22244 MEMB     179      QMPE     H2S      HAL2     0.900000E-01   1.00800           0
     22245 MEMB     179      QMPE     C3       CTL2     0.800000E-01   12.0110           0
     22246 MEMB     179      QMPE     HX       HAL2     0.900000E-01   1.00800           0
     22247 MEMB     179      QMPE     HY       HAL2     0.900000E-01   1.00800           0
     22248 MEMB     179      QMPE     O31      OSL     -0.490000       15.9994           0
     22249 MEMB     179      QMPE     C31      CL       0.900000       12.0110           0
     22250 MEMB     179      QMPE     O32      OBL     -0.630000       15.9994           0
     22251 MEMB     179      QMPE     C32      CTL2    -0.220000       12.0110           0
     22252 MEMB     179      QMPE     H2X      HAL2     0.900000E-01   1.00800           0
     22253 MEMB     179      QMPE     H2Y      HAL2     0.900000E-01   1.00800           0
     22254 MEMB     179      QMPE     C23      CTL2    -0.180000       12.0110           0
     22255 MEMB     179      QMPE     H3R      HAL2     0.900000E-01   1.00800           0
     22256 MEMB     179      QMPE     H3S      HAL2     0.900000E-01   1.00800           0
     22257 MEMB     179      QMPE     C24      CTL2    -0.180000       12.0110           0
     22258 MEMB     179      QMPE     H4R      HAL2     0.900000E-01   1.00800           0
     22259 MEMB     179      QMPE     H4S      HAL2     0.900000E-01   1.00800           0
     22260 MEMB     179      QMPE     C25      CTL2    -0.180000       12.0110           0
     22261 MEMB     179      QMPE     H5R      HAL2     0.900000E-01   1.00800           0
     22262 MEMB     179      QMPE     H5S      HAL2     0.900000E-01   1.00800           0
     22263 MEMB     179      QMPE     C26      CTL2    -0.180000       12.0110           0
     22264 MEMB     179      QMPE     H6R      HAL2     0.900000E-01   1.00800           0
     22265 MEMB     179      QMPE     H6S      HAL2     0.900000E-01   1.00800           0
     22266 MEMB     179      QMPE     C27      CTL2    -0.180000       12.0110           0
     22267 MEMB     179      QMPE     H7R      HAL2     0.900000E-01   1.00800           0
     22268 MEMB     179      QMPE     H7S      HAL2     0.900000E-01   1.00800           0
     22269 MEMB     179      QMPE     C28      CTL2    -0.180000       12.0110           0
     22270 MEMB     179      QMPE     H8R      HAL2     0.900000E-01   1.00800           0
     22271 MEMB     179      QMPE     H8S      HAL2     0.900000E-01   1.00800           0
     22272 MEMB     179      QMPE     C29      CG3RC1  -0.900000E-01   12.0110           0
     22273 MEMB     179      QMPE     H9R      HGA1     0.900000E-01   1.00800           0
     22274 MEMB     179      QMPE     C217     CG3C31  -0.180000       12.0110           0
     22275 MEMB     179      QMPE     H17R     HGA2     0.900000E-01   1.00800           0
     22276 MEMB     179      QMPE     H17S     HGA2     0.900000E-01   1.00800           0
     22277 MEMB     179      QMPE     C210     CG3RC1  -0.900000E-01   12.0110           0
     22278 MEMB     179      QMPE     H10R     HGA1     0.900000E-01   1.00800           0
     22279 MEMB     179      QMPE     C211     CTL2    -0.180000       12.0110           0
     22280 MEMB     179      QMPE     H11R     HAL2     0.900000E-01   1.00800           0
     22281 MEMB     179      QMPE     H11S     HAL2     0.900000E-01   1.00800           0
     22282 MEMB     179      QMPE     C212     CTL2    -0.180000       12.0110           0
     22283 MEMB     179      QMPE     H12R     HAL2     0.900000E-01   1.00800           0
     22284 MEMB     179      QMPE     H12S     HAL2     0.900000E-01   1.00800           0
     22285 MEMB     179      QMPE     C213     CTL2    -0.180000       12.0110           0
     22286 MEMB     179      QMPE     H13R     HAL2     0.900000E-01   1.00800           0
     22287 MEMB     179      QMPE     H13S     HAL2     0.900000E-01   1.00800           0
     22288 MEMB     179      QMPE     C214     CTL2    -0.180000       12.0110           0
     22289 MEMB     179      QMPE     H14R     HAL2     0.900000E-01   1.00800           0
     22290 MEMB     179      QMPE     H14S     HAL2     0.900000E-01   1.00800           0
     22291 MEMB     179      QMPE     C215     CTL2    -0.180000       12.0110           0
     22292 MEMB     179      QMPE     H15R     HAL2     0.900000E-01   1.00800           0
     22293 MEMB     179      QMPE     H15S     HAL2     0.900000E-01   1.00800           0
     22294 MEMB     179      QMPE     C216     CTL3    -0.270000       12.0110           0
     22295 MEMB     179      QMPE     H16R     HAL3     0.900000E-01   1.00800           0
     22296 MEMB     179      QMPE     H16S     HAL3     0.900000E-01   1.00800           0
     22297 MEMB     179      QMPE     H16T     HAL3     0.900000E-01   1.00800           0
     22298 MEMB     179      QMPE     C33      CTL2    -0.180000       12.0110           0
     22299 MEMB     179      QMPE     H3X      HAL2     0.900000E-01   1.00800           0
     22300 MEMB     179      QMPE     H3Y      HAL2     0.900000E-01   1.00800           0
     22301 MEMB     179      QMPE     C34      CTL2    -0.180000       12.0110           0
     22302 MEMB     179      QMPE     H4X      HAL2     0.900000E-01   1.00800           0
     22303 MEMB     179      QMPE     H4Y      HAL2     0.900000E-01   1.00800           0
     22304 MEMB     179      QMPE     C35      CTL2    -0.180000       12.0110           0
     22305 MEMB     179      QMPE     H5X      HAL2     0.900000E-01   1.00800           0
     22306 MEMB     179      QMPE     H5Y      HAL2     0.900000E-01   1.00800           0
     22307 MEMB     179      QMPE     C36      CTL2    -0.180000       12.0110           0
     22308 MEMB     179      QMPE     H6X      HAL2     0.900000E-01   1.00800           0
     22309 MEMB     179      QMPE     H6Y      HAL2     0.900000E-01   1.00800           0
     22310 MEMB     179      QMPE     C37      CTL2    -0.180000       12.0110           0
     22311 MEMB     179      QMPE     H7X      HAL2     0.900000E-01   1.00800           0
     22312 MEMB     179      QMPE     H7Y      HAL2     0.900000E-01   1.00800           0
     22313 MEMB     179      QMPE     C38      CTL2    -0.180000       12.0110           0
     22314 MEMB     179      QMPE     H8X      HAL2     0.900000E-01   1.00800           0
     22315 MEMB     179      QMPE     H8Y      HAL2     0.900000E-01   1.00800           0
     22316 MEMB     179      QMPE     C39      CTL2    -0.180000       12.0110           0
     22317 MEMB     179      QMPE     H9X      HAL2     0.900000E-01   1.00800           0
     22318 MEMB     179      QMPE     H9Y      HAL2     0.900000E-01   1.00800           0
     22319 MEMB     179      QMPE     C310     CTL2    -0.180000       12.0110           0
     22320 MEMB     179      QMPE     H10X     HAL2     0.900000E-01   1.00800           0
     22321 MEMB     179      QMPE     H10Y     HAL2     0.900000E-01   1.00800           0
     22322 MEMB     179      QMPE     C311     CTL2    -0.180000       12.0110           0
     22323 MEMB     179      QMPE     H11X     HAL2     0.900000E-01   1.00800           0
     22324 MEMB     179      QMPE     H11Y     HAL2     0.900000E-01   1.00800           0
     22325 MEMB     179      QMPE     C312     CTL2    -0.180000       12.0110           0
     22326 MEMB     179      QMPE     H12X     HAL2     0.900000E-01   1.00800           0
     22327 MEMB     179      QMPE     H12Y     HAL2     0.900000E-01   1.00800           0
     22328 MEMB     179      QMPE     C313     CTL2    -0.180000       12.0110           0
     22329 MEMB     179      QMPE     H13X     HAL2     0.900000E-01   1.00800           0
     22330 MEMB     179      QMPE     H13Y     HAL2     0.900000E-01   1.00800           0
     22331 MEMB     179      QMPE     C314     CTL2    -0.180000       12.0110           0
     22332 MEMB     179      QMPE     H14X     HAL2     0.900000E-01   1.00800           0
     22333 MEMB     179      QMPE     H14Y     HAL2     0.900000E-01   1.00800           0
     22334 MEMB     179      QMPE     C315     CTL3    -0.270000       12.0110           0
     22335 MEMB     179      QMPE     H15X     HAL3     0.900000E-01   1.00800           0
     22336 MEMB     179      QMPE     H15Y     HAL3     0.900000E-01   1.00800           0
     22337 MEMB     179      QMPE     H15Z     HAL3     0.900000E-01   1.00800           0
     22338 MEMB     180      PMPE     N        NH3L    -0.300000       14.0070           0
     22339 MEMB     180      PMPE     HN1      HCL      0.330000       1.00800           0
     22340 MEMB     180      PMPE     HN2      HCL      0.330000       1.00800           0
     22341 MEMB     180      PMPE     HN3      HCL      0.330000       1.00800           0
     22342 MEMB     180      PMPE     C12      CTL2     0.130000       12.0110           0
     22343 MEMB     180      PMPE     H12A     HAL2     0.900000E-01   1.00800           0
     22344 MEMB     180      PMPE     H12B     HAL2     0.900000E-01   1.00800           0
     22345 MEMB     180      PMPE     C11      CTL2    -0.800000E-01   12.0110           0
     22346 MEMB     180      PMPE     H11A     HAL2     0.900000E-01   1.00800           0
     22347 MEMB     180      PMPE     H11B     HAL2     0.900000E-01   1.00800           0
     22348 MEMB     180      PMPE     P        PL        1.50000       30.9740           0
     22349 MEMB     180      PMPE     O13      O2L     -0.780000       15.9994           0
     22350 MEMB     180      PMPE     O14      O2L     -0.780000       15.9994           0
     22351 MEMB     180      PMPE     O11      OSLP    -0.570000       15.9994           0
     22352 MEMB     180      PMPE     O12      OSLP    -0.570000       15.9994           0
     22353 MEMB     180      PMPE     C1       CTL2    -0.800000E-01   12.0110           0
     22354 MEMB     180      PMPE     HA       HAL2     0.900000E-01   1.00800           0
     22355 MEMB     180      PMPE     HB       HAL2     0.900000E-01   1.00800           0
     22356 MEMB     180      PMPE     C2       CTL1     0.170000       12.0110           0
     22357 MEMB     180      PMPE     HS       HAL1     0.900000E-01   1.00800           0
     22358 MEMB     180      PMPE     O21      OSL     -0.490000       15.9994           0
     22359 MEMB     180      PMPE     C21      CL       0.900000       12.0110           0
     22360 MEMB     180      PMPE     O22      OBL     -0.630000       15.9994           0
     22361 MEMB     180      PMPE     C22      CTL2    -0.220000       12.0110           0
     22362 MEMB     180      PMPE     H2R      HAL2     0.900000E-01   1.00800           0
     22363 MEMB     180      PMPE     H2S      HAL2     0.900000E-01   1.00800           0
     22364 MEMB     180      PMPE     C3       CTL2     0.800000E-01   12.0110           0
     22365 MEMB     180      PMPE     HX       HAL2     0.900000E-01   1.00800           0
     22366 MEMB     180      PMPE     HY       HAL2     0.900000E-01   1.00800           0
     22367 MEMB     180      PMPE     O31      OSL     -0.490000       15.9994           0
     22368 MEMB     180      PMPE     C31      CL       0.900000       12.0110           0
     22369 MEMB     180      PMPE     O32      OBL     -0.630000       15.9994           0
     22370 MEMB     180      PMPE     C32      CTL2    -0.220000       12.0110           0
     22371 MEMB     180      PMPE     H2X      HAL2     0.900000E-01   1.00800           0
     22372 MEMB     180      PMPE     H2Y      HAL2     0.900000E-01   1.00800           0
     22373 MEMB     180      PMPE     C23      CTL2    -0.180000       12.0110           0
     22374 MEMB     180      PMPE     H3R      HAL2     0.900000E-01   1.00800           0
     22375 MEMB     180      PMPE     H3S      HAL2     0.900000E-01   1.00800           0
     22376 MEMB     180      PMPE     C24      CTL2    -0.180000       12.0110           0
     22377 MEMB     180      PMPE     H4R      HAL2     0.900000E-01   1.00800           0
     22378 MEMB     180      PMPE     H4S      HAL2     0.900000E-01   1.00800           0
     22379 MEMB     180      PMPE     C25      CTL2    -0.180000       12.0110           0
     22380 MEMB     180      PMPE     H5R      HAL2     0.900000E-01   1.00800           0
     22381 MEMB     180      PMPE     H5S      HAL2     0.900000E-01   1.00800           0
     22382 MEMB     180      PMPE     C26      CTL2    -0.180000       12.0110           0
     22383 MEMB     180      PMPE     H6R      HAL2     0.900000E-01   1.00800           0
     22384 MEMB     180      PMPE     H6S      HAL2     0.900000E-01   1.00800           0
     22385 MEMB     180      PMPE     C27      CTL2    -0.180000       12.0110           0
     22386 MEMB     180      PMPE     H7R      HAL2     0.900000E-01   1.00800           0
     22387 MEMB     180      PMPE     H7S      HAL2     0.900000E-01   1.00800           0
     22388 MEMB     180      PMPE     C28      CTL2    -0.180000       12.0110           0
     22389 MEMB     180      PMPE     H8R      HAL2     0.900000E-01   1.00800           0
     22390 MEMB     180      PMPE     H8S      HAL2     0.900000E-01   1.00800           0
     22391 MEMB     180      PMPE     C29      CG3RC1  -0.900000E-01   12.0110           0
     22392 MEMB     180      PMPE     H9R      HGA1     0.900000E-01   1.00800           0
     22393 MEMB     180      PMPE     C217     CG3C31  -0.180000       12.0110           0
     22394 MEMB     180      PMPE     H17R     HGA2     0.900000E-01   1.00800           0
     22395 MEMB     180      PMPE     H17S     HGA2     0.900000E-01   1.00800           0
     22396 MEMB     180      PMPE     C210     CG3RC1  -0.900000E-01   12.0110           0
     22397 MEMB     180      PMPE     H10R     HGA1     0.900000E-01   1.00800           0
     22398 MEMB     180      PMPE     C211     CTL2    -0.180000       12.0110           0
     22399 MEMB     180      PMPE     H11R     HAL2     0.900000E-01   1.00800           0
     22400 MEMB     180      PMPE     H11S     HAL2     0.900000E-01   1.00800           0
     22401 MEMB     180      PMPE     C212     CTL2    -0.180000       12.0110           0
     22402 MEMB     180      PMPE     H12R     HAL2     0.900000E-01   1.00800           0
     22403 MEMB     180      PMPE     H12S     HAL2     0.900000E-01   1.00800           0
     22404 MEMB     180      PMPE     C213     CTL2    -0.180000       12.0110           0
     22405 MEMB     180      PMPE     H13R     HAL2     0.900000E-01   1.00800           0
     22406 MEMB     180      PMPE     H13S     HAL2     0.900000E-01   1.00800           0
     22407 MEMB     180      PMPE     C214     CTL2    -0.180000       12.0110           0
     22408 MEMB     180      PMPE     H14R     HAL2     0.900000E-01   1.00800           0
     22409 MEMB     180      PMPE     H14S     HAL2     0.900000E-01   1.00800           0
     22410 MEMB     180      PMPE     C215     CTL2    -0.180000       12.0110           0
     22411 MEMB     180      PMPE     H15R     HAL2     0.900000E-01   1.00800           0
     22412 MEMB     180      PMPE     H15S     HAL2     0.900000E-01   1.00800           0
     22413 MEMB     180      PMPE     C216     CTL3    -0.270000       12.0110           0
     22414 MEMB     180      PMPE     H16R     HAL3     0.900000E-01   1.00800           0
     22415 MEMB     180      PMPE     H16S     HAL3     0.900000E-01   1.00800           0
     22416 MEMB     180      PMPE     H16T     HAL3     0.900000E-01   1.00800           0
     22417 MEMB     180      PMPE     C33      CTL2    -0.180000       12.0110           0
     22418 MEMB     180      PMPE     H3X      HAL2     0.900000E-01   1.00800           0
     22419 MEMB     180      PMPE     H3Y      HAL2     0.900000E-01   1.00800           0
     22420 MEMB     180      PMPE     C34      CTL2    -0.180000       12.0110           0
     22421 MEMB     180      PMPE     H4X      HAL2     0.900000E-01   1.00800           0
     22422 MEMB     180      PMPE     H4Y      HAL2     0.900000E-01   1.00800           0
     22423 MEMB     180      PMPE     C35      CTL2    -0.180000       12.0110           0
     22424 MEMB     180      PMPE     H5X      HAL2     0.900000E-01   1.00800           0
     22425 MEMB     180      PMPE     H5Y      HAL2     0.900000E-01   1.00800           0
     22426 MEMB     180      PMPE     C36      CTL2    -0.180000       12.0110           0
     22427 MEMB     180      PMPE     H6X      HAL2     0.900000E-01   1.00800           0
     22428 MEMB     180      PMPE     H6Y      HAL2     0.900000E-01   1.00800           0
     22429 MEMB     180      PMPE     C37      CTL2    -0.180000       12.0110           0
     22430 MEMB     180      PMPE     H7X      HAL2     0.900000E-01   1.00800           0
     22431 MEMB     180      PMPE     H7Y      HAL2     0.900000E-01   1.00800           0
     22432 MEMB     180      PMPE     C38      CTL2    -0.180000       12.0110           0
     22433 MEMB     180      PMPE     H8X      HAL2     0.900000E-01   1.00800           0
     22434 MEMB     180      PMPE     H8Y      HAL2     0.900000E-01   1.00800           0
     22435 MEMB     180      PMPE     C39      CTL2    -0.180000       12.0110           0
     22436 MEMB     180      PMPE     H9X      HAL2     0.900000E-01   1.00800           0
     22437 MEMB     180      PMPE     H9Y      HAL2     0.900000E-01   1.00800           0
     22438 MEMB     180      PMPE     C310     CTL2    -0.180000       12.0110           0
     22439 MEMB     180      PMPE     H10X     HAL2     0.900000E-01   1.00800           0
     22440 MEMB     180      PMPE     H10Y     HAL2     0.900000E-01   1.00800           0
     22441 MEMB     180      PMPE     C311     CTL2    -0.180000       12.0110           0
     22442 MEMB     180      PMPE     H11X     HAL2     0.900000E-01   1.00800           0
     22443 MEMB     180      PMPE     H11Y     HAL2     0.900000E-01   1.00800           0
     22444 MEMB     180      PMPE     C312     CTL2    -0.180000       12.0110           0
     22445 MEMB     180      PMPE     H12X     HAL2     0.900000E-01   1.00800           0
     22446 MEMB     180      PMPE     H12Y     HAL2     0.900000E-01   1.00800           0
     22447 MEMB     180      PMPE     C313     CTL2    -0.180000       12.0110           0
     22448 MEMB     180      PMPE     H13X     HAL2     0.900000E-01   1.00800           0
     22449 MEMB     180      PMPE     H13Y     HAL2     0.900000E-01   1.00800           0
     22450 MEMB     180      PMPE     C314     CTL2    -0.180000       12.0110           0
     22451 MEMB     180      PMPE     H14X     HAL2     0.900000E-01   1.00800           0
     22452 MEMB     180      PMPE     H14Y     HAL2     0.900000E-01   1.00800           0
     22453 MEMB     180      PMPE     C315     CTL2    -0.180000       12.0110           0
     22454 MEMB     180      PMPE     H15X     HAL2     0.900000E-01   1.00800           0
     22455 MEMB     180      PMPE     H15Y     HAL2     0.900000E-01   1.00800           0
     22456 MEMB     180      PMPE     C316     CTL3    -0.270000       12.0110           0
     22457 MEMB     180      PMPE     H16X     HAL3     0.900000E-01   1.00800           0
     22458 MEMB     180      PMPE     H16Y     HAL3     0.900000E-01   1.00800           0
     22459 MEMB     180      PMPE     H16Z     HAL3     0.900000E-01   1.00800           0
     22460 MEMB     181      PMPG     C13      CTL2     0.500000E-01   12.0110           0
     22461 MEMB     181      PMPG     H13A     HAL2     0.900000E-01   1.00800           0
     22462 MEMB     181      PMPG     H13B     HAL2     0.900000E-01   1.00800           0
     22463 MEMB     181      PMPG     OC3      OHL     -0.660000       15.9994           0
     22464 MEMB     181      PMPG     HO3      HOL      0.430000       1.00800           0
     22465 MEMB     181      PMPG     C12      CTL1     0.140000       12.0110           0
     22466 MEMB     181      PMPG     H12A     HAL1     0.900000E-01   1.00800           0
     22467 MEMB     181      PMPG     OC2      OHL     -0.660000       15.9994           0
     22468 MEMB     181      PMPG     HO2      HOL      0.430000       1.00800           0
     22469 MEMB     181      PMPG     C11      CTL2    -0.800000E-01   12.0110           0
     22470 MEMB     181      PMPG     H11A     HAL2     0.900000E-01   1.00800           0
     22471 MEMB     181      PMPG     H11B     HAL2     0.900000E-01   1.00800           0
     22472 MEMB     181      PMPG     P        PL        1.50000       30.9740           0
     22473 MEMB     181      PMPG     O13      O2L     -0.780000       15.9994           0
     22474 MEMB     181      PMPG     O14      O2L     -0.780000       15.9994           0
     22475 MEMB     181      PMPG     O11      OSLP    -0.570000       15.9994           0
     22476 MEMB     181      PMPG     O12      OSLP    -0.570000       15.9994           0
     22477 MEMB     181      PMPG     C1       CTL2    -0.800000E-01   12.0110           0
     22478 MEMB     181      PMPG     HA       HAL2     0.900000E-01   1.00800           0
     22479 MEMB     181      PMPG     HB       HAL2     0.900000E-01   1.00800           0
     22480 MEMB     181      PMPG     C2       CTL1     0.170000       12.0110           0
     22481 MEMB     181      PMPG     HS       HAL1     0.900000E-01   1.00800           0
     22482 MEMB     181      PMPG     O21      OSL     -0.490000       15.9994           0
     22483 MEMB     181      PMPG     C21      CL       0.900000       12.0110           0
     22484 MEMB     181      PMPG     O22      OBL     -0.630000       15.9994           0
     22485 MEMB     181      PMPG     C22      CTL2    -0.220000       12.0110           0
     22486 MEMB     181      PMPG     H2R      HAL2     0.900000E-01   1.00800           0
     22487 MEMB     181      PMPG     H2S      HAL2     0.900000E-01   1.00800           0
     22488 MEMB     181      PMPG     C3       CTL2     0.800000E-01   12.0110           0
     22489 MEMB     181      PMPG     HX       HAL2     0.900000E-01   1.00800           0
     22490 MEMB     181      PMPG     HY       HAL2     0.900000E-01   1.00800           0
     22491 MEMB     181      PMPG     O31      OSL     -0.490000       15.9994           0
     22492 MEMB     181      PMPG     C31      CL       0.900000       12.0110           0
     22493 MEMB     181      PMPG     O32      OBL     -0.630000       15.9994           0
     22494 MEMB     181      PMPG     C32      CTL2    -0.220000       12.0110           0
     22495 MEMB     181      PMPG     H2X      HAL2     0.900000E-01   1.00800           0
     22496 MEMB     181      PMPG     H2Y      HAL2     0.900000E-01   1.00800           0
     22497 MEMB     181      PMPG     C23      CTL2    -0.180000       12.0110           0
     22498 MEMB     181      PMPG     H3R      HAL2     0.900000E-01   1.00800           0
     22499 MEMB     181      PMPG     H3S      HAL2     0.900000E-01   1.00800           0
     22500 MEMB     181      PMPG     C24      CTL2    -0.180000       12.0110           0
     22501 MEMB     181      PMPG     H4R      HAL2     0.900000E-01   1.00800           0
     22502 MEMB     181      PMPG     H4S      HAL2     0.900000E-01   1.00800           0
     22503 MEMB     181      PMPG     C25      CTL2    -0.180000       12.0110           0
     22504 MEMB     181      PMPG     H5R      HAL2     0.900000E-01   1.00800           0
     22505 MEMB     181      PMPG     H5S      HAL2     0.900000E-01   1.00800           0
     22506 MEMB     181      PMPG     C26      CTL2    -0.180000       12.0110           0
     22507 MEMB     181      PMPG     H6R      HAL2     0.900000E-01   1.00800           0
     22508 MEMB     181      PMPG     H6S      HAL2     0.900000E-01   1.00800           0
     22509 MEMB     181      PMPG     C27      CTL2    -0.180000       12.0110           0
     22510 MEMB     181      PMPG     H7R      HAL2     0.900000E-01   1.00800           0
     22511 MEMB     181      PMPG     H7S      HAL2     0.900000E-01   1.00800           0
     22512 MEMB     181      PMPG     C28      CTL2    -0.180000       12.0110           0
     22513 MEMB     181      PMPG     H8R      HAL2     0.900000E-01   1.00800           0
     22514 MEMB     181      PMPG     H8S      HAL2     0.900000E-01   1.00800           0
     22515 MEMB     181      PMPG     C29      CG3RC1  -0.900000E-01   12.0110           0
     22516 MEMB     181      PMPG     H9R      HGA1     0.900000E-01   1.00800           0
     22517 MEMB     181      PMPG     C217     CG3C31  -0.180000       12.0110           0
     22518 MEMB     181      PMPG     H17R     HGA2     0.900000E-01   1.00800           0
     22519 MEMB     181      PMPG     H17S     HGA2     0.900000E-01   1.00800           0
     22520 MEMB     181      PMPG     C210     CG3RC1  -0.900000E-01   12.0110           0
     22521 MEMB     181      PMPG     H10R     HGA1     0.900000E-01   1.00800           0
     22522 MEMB     181      PMPG     C211     CTL2    -0.180000       12.0110           0
     22523 MEMB     181      PMPG     H11R     HAL2     0.900000E-01   1.00800           0
     22524 MEMB     181      PMPG     H11S     HAL2     0.900000E-01   1.00800           0
     22525 MEMB     181      PMPG     C212     CTL2    -0.180000       12.0110           0
     22526 MEMB     181      PMPG     H12R     HAL2     0.900000E-01   1.00800           0
     22527 MEMB     181      PMPG     H12S     HAL2     0.900000E-01   1.00800           0
     22528 MEMB     181      PMPG     C213     CTL2    -0.180000       12.0110           0
     22529 MEMB     181      PMPG     H13R     HAL2     0.900000E-01   1.00800           0
     22530 MEMB     181      PMPG     H13S     HAL2     0.900000E-01   1.00800           0
     22531 MEMB     181      PMPG     C214     CTL2    -0.180000       12.0110           0
     22532 MEMB     181      PMPG     H14R     HAL2     0.900000E-01   1.00800           0
     22533 MEMB     181      PMPG     H14S     HAL2     0.900000E-01   1.00800           0
     22534 MEMB     181      PMPG     C215     CTL2    -0.180000       12.0110           0
     22535 MEMB     181      PMPG     H15R     HAL2     0.900000E-01   1.00800           0
     22536 MEMB     181      PMPG     H15S     HAL2     0.900000E-01   1.00800           0
     22537 MEMB     181      PMPG     C216     CTL3    -0.270000       12.0110           0
     22538 MEMB     181      PMPG     H16R     HAL3     0.900000E-01   1.00800           0
     22539 MEMB     181      PMPG     H16S     HAL3     0.900000E-01   1.00800           0
     22540 MEMB     181      PMPG     H16T     HAL3     0.900000E-01   1.00800           0
     22541 MEMB     181      PMPG     C33      CTL2    -0.180000       12.0110           0
     22542 MEMB     181      PMPG     H3X      HAL2     0.900000E-01   1.00800           0
     22543 MEMB     181      PMPG     H3Y      HAL2     0.900000E-01   1.00800           0
     22544 MEMB     181      PMPG     C34      CTL2    -0.180000       12.0110           0
     22545 MEMB     181      PMPG     H4X      HAL2     0.900000E-01   1.00800           0
     22546 MEMB     181      PMPG     H4Y      HAL2     0.900000E-01   1.00800           0
     22547 MEMB     181      PMPG     C35      CTL2    -0.180000       12.0110           0
     22548 MEMB     181      PMPG     H5X      HAL2     0.900000E-01   1.00800           0
     22549 MEMB     181      PMPG     H5Y      HAL2     0.900000E-01   1.00800           0
     22550 MEMB     181      PMPG     C36      CTL2    -0.180000       12.0110           0
     22551 MEMB     181      PMPG     H6X      HAL2     0.900000E-01   1.00800           0
     22552 MEMB     181      PMPG     H6Y      HAL2     0.900000E-01   1.00800           0
     22553 MEMB     181      PMPG     C37      CTL2    -0.180000       12.0110           0
     22554 MEMB     181      PMPG     H7X      HAL2     0.900000E-01   1.00800           0
     22555 MEMB     181      PMPG     H7Y      HAL2     0.900000E-01   1.00800           0
     22556 MEMB     181      PMPG     C38      CTL2    -0.180000       12.0110           0
     22557 MEMB     181      PMPG     H8X      HAL2     0.900000E-01   1.00800           0
     22558 MEMB     181      PMPG     H8Y      HAL2     0.900000E-01   1.00800           0
     22559 MEMB     181      PMPG     C39      CTL2    -0.180000       12.0110           0
     22560 MEMB     181      PMPG     H9X      HAL2     0.900000E-01   1.00800           0
     22561 MEMB     181      PMPG     H9Y      HAL2     0.900000E-01   1.00800           0
     22562 MEMB     181      PMPG     C310     CTL2    -0.180000       12.0110           0
     22563 MEMB     181      PMPG     H10X     HAL2     0.900000E-01   1.00800           0
     22564 MEMB     181      PMPG     H10Y     HAL2     0.900000E-01   1.00800           0
     22565 MEMB     181      PMPG     C311     CTL2    -0.180000       12.0110           0
     22566 MEMB     181      PMPG     H11X     HAL2     0.900000E-01   1.00800           0
     22567 MEMB     181      PMPG     H11Y     HAL2     0.900000E-01   1.00800           0
     22568 MEMB     181      PMPG     C312     CTL2    -0.180000       12.0110           0
     22569 MEMB     181      PMPG     H12X     HAL2     0.900000E-01   1.00800           0
     22570 MEMB     181      PMPG     H12Y     HAL2     0.900000E-01   1.00800           0
     22571 MEMB     181      PMPG     C313     CTL2    -0.180000       12.0110           0
     22572 MEMB     181      PMPG     H13X     HAL2     0.900000E-01   1.00800           0
     22573 MEMB     181      PMPG     H13Y     HAL2     0.900000E-01   1.00800           0
     22574 MEMB     181      PMPG     C314     CTL2    -0.180000       12.0110           0
     22575 MEMB     181      PMPG     H14X     HAL2     0.900000E-01   1.00800           0
     22576 MEMB     181      PMPG     H14Y     HAL2     0.900000E-01   1.00800           0
     22577 MEMB     181      PMPG     C315     CTL2    -0.180000       12.0110           0
     22578 MEMB     181      PMPG     H15X     HAL2     0.900000E-01   1.00800           0
     22579 MEMB     181      PMPG     H15Y     HAL2     0.900000E-01   1.00800           0
     22580 MEMB     181      PMPG     C316     CTL3    -0.270000       12.0110           0
     22581 MEMB     181      PMPG     H16X     HAL3     0.900000E-01   1.00800           0
     22582 MEMB     181      PMPG     H16Y     HAL3     0.900000E-01   1.00800           0
     22583 MEMB     181      PMPG     H16Z     HAL3     0.900000E-01   1.00800           0
     22584 MEMB     182      PMPG     C13      CTL2     0.500000E-01   12.0110           0
     22585 MEMB     182      PMPG     H13A     HAL2     0.900000E-01   1.00800           0
     22586 MEMB     182      PMPG     H13B     HAL2     0.900000E-01   1.00800           0
     22587 MEMB     182      PMPG     OC3      OHL     -0.660000       15.9994           0
     22588 MEMB     182      PMPG     HO3      HOL      0.430000       1.00800           0
     22589 MEMB     182      PMPG     C12      CTL1     0.140000       12.0110           0
     22590 MEMB     182      PMPG     H12A     HAL1     0.900000E-01   1.00800           0
     22591 MEMB     182      PMPG     OC2      OHL     -0.660000       15.9994           0
     22592 MEMB     182      PMPG     HO2      HOL      0.430000       1.00800           0
     22593 MEMB     182      PMPG     C11      CTL2    -0.800000E-01   12.0110           0
     22594 MEMB     182      PMPG     H11A     HAL2     0.900000E-01   1.00800           0
     22595 MEMB     182      PMPG     H11B     HAL2     0.900000E-01   1.00800           0
     22596 MEMB     182      PMPG     P        PL        1.50000       30.9740           0
     22597 MEMB     182      PMPG     O13      O2L     -0.780000       15.9994           0
     22598 MEMB     182      PMPG     O14      O2L     -0.780000       15.9994           0
     22599 MEMB     182      PMPG     O11      OSLP    -0.570000       15.9994           0
     22600 MEMB     182      PMPG     O12      OSLP    -0.570000       15.9994           0
     22601 MEMB     182      PMPG     C1       CTL2    -0.800000E-01   12.0110           0
     22602 MEMB     182      PMPG     HA       HAL2     0.900000E-01   1.00800           0
     22603 MEMB     182      PMPG     HB       HAL2     0.900000E-01   1.00800           0
     22604 MEMB     182      PMPG     C2       CTL1     0.170000       12.0110           0
     22605 MEMB     182      PMPG     HS       HAL1     0.900000E-01   1.00800           0
     22606 MEMB     182      PMPG     O21      OSL     -0.490000       15.9994           0
     22607 MEMB     182      PMPG     C21      CL       0.900000       12.0110           0
     22608 MEMB     182      PMPG     O22      OBL     -0.630000       15.9994           0
     22609 MEMB     182      PMPG     C22      CTL2    -0.220000       12.0110           0
     22610 MEMB     182      PMPG     H2R      HAL2     0.900000E-01   1.00800           0
     22611 MEMB     182      PMPG     H2S      HAL2     0.900000E-01   1.00800           0
     22612 MEMB     182      PMPG     C3       CTL2     0.800000E-01   12.0110           0
     22613 MEMB     182      PMPG     HX       HAL2     0.900000E-01   1.00800           0
     22614 MEMB     182      PMPG     HY       HAL2     0.900000E-01   1.00800           0
     22615 MEMB     182      PMPG     O31      OSL     -0.490000       15.9994           0
     22616 MEMB     182      PMPG     C31      CL       0.900000       12.0110           0
     22617 MEMB     182      PMPG     O32      OBL     -0.630000       15.9994           0
     22618 MEMB     182      PMPG     C32      CTL2    -0.220000       12.0110           0
     22619 MEMB     182      PMPG     H2X      HAL2     0.900000E-01   1.00800           0
     22620 MEMB     182      PMPG     H2Y      HAL2     0.900000E-01   1.00800           0
     22621 MEMB     182      PMPG     C23      CTL2    -0.180000       12.0110           0
     22622 MEMB     182      PMPG     H3R      HAL2     0.900000E-01   1.00800           0
     22623 MEMB     182      PMPG     H3S      HAL2     0.900000E-01   1.00800           0
     22624 MEMB     182      PMPG     C24      CTL2    -0.180000       12.0110           0
     22625 MEMB     182      PMPG     H4R      HAL2     0.900000E-01   1.00800           0
     22626 MEMB     182      PMPG     H4S      HAL2     0.900000E-01   1.00800           0
     22627 MEMB     182      PMPG     C25      CTL2    -0.180000       12.0110           0
     22628 MEMB     182      PMPG     H5R      HAL2     0.900000E-01   1.00800           0
     22629 MEMB     182      PMPG     H5S      HAL2     0.900000E-01   1.00800           0
     22630 MEMB     182      PMPG     C26      CTL2    -0.180000       12.0110           0
     22631 MEMB     182      PMPG     H6R      HAL2     0.900000E-01   1.00800           0
     22632 MEMB     182      PMPG     H6S      HAL2     0.900000E-01   1.00800           0
     22633 MEMB     182      PMPG     C27      CTL2    -0.180000       12.0110           0
     22634 MEMB     182      PMPG     H7R      HAL2     0.900000E-01   1.00800           0
     22635 MEMB     182      PMPG     H7S      HAL2     0.900000E-01   1.00800           0
     22636 MEMB     182      PMPG     C28      CTL2    -0.180000       12.0110           0
     22637 MEMB     182      PMPG     H8R      HAL2     0.900000E-01   1.00800           0
     22638 MEMB     182      PMPG     H8S      HAL2     0.900000E-01   1.00800           0
     22639 MEMB     182      PMPG     C29      CG3RC1  -0.900000E-01   12.0110           0
     22640 MEMB     182      PMPG     H9R      HGA1     0.900000E-01   1.00800           0
     22641 MEMB     182      PMPG     C217     CG3C31  -0.180000       12.0110           0
     22642 MEMB     182      PMPG     H17R     HGA2     0.900000E-01   1.00800           0
     22643 MEMB     182      PMPG     H17S     HGA2     0.900000E-01   1.00800           0
     22644 MEMB     182      PMPG     C210     CG3RC1  -0.900000E-01   12.0110           0
     22645 MEMB     182      PMPG     H10R     HGA1     0.900000E-01   1.00800           0
     22646 MEMB     182      PMPG     C211     CTL2    -0.180000       12.0110           0
     22647 MEMB     182      PMPG     H11R     HAL2     0.900000E-01   1.00800           0
     22648 MEMB     182      PMPG     H11S     HAL2     0.900000E-01   1.00800           0
     22649 MEMB     182      PMPG     C212     CTL2    -0.180000       12.0110           0
     22650 MEMB     182      PMPG     H12R     HAL2     0.900000E-01   1.00800           0
     22651 MEMB     182      PMPG     H12S     HAL2     0.900000E-01   1.00800           0
     22652 MEMB     182      PMPG     C213     CTL2    -0.180000       12.0110           0
     22653 MEMB     182      PMPG     H13R     HAL2     0.900000E-01   1.00800           0
     22654 MEMB     182      PMPG     H13S     HAL2     0.900000E-01   1.00800           0
     22655 MEMB     182      PMPG     C214     CTL2    -0.180000       12.0110           0
     22656 MEMB     182      PMPG     H14R     HAL2     0.900000E-01   1.00800           0
     22657 MEMB     182      PMPG     H14S     HAL2     0.900000E-01   1.00800           0
     22658 MEMB     182      PMPG     C215     CTL2    -0.180000       12.0110           0
     22659 MEMB     182      PMPG     H15R     HAL2     0.900000E-01   1.00800           0
     22660 MEMB     182      PMPG     H15S     HAL2     0.900000E-01   1.00800           0
     22661 MEMB     182      PMPG     C216     CTL3    -0.270000       12.0110           0
     22662 MEMB     182      PMPG     H16R     HAL3     0.900000E-01   1.00800           0
     22663 MEMB     182      PMPG     H16S     HAL3     0.900000E-01   1.00800           0
     22664 MEMB     182      PMPG     H16T     HAL3     0.900000E-01   1.00800           0
     22665 MEMB     182      PMPG     C33      CTL2    -0.180000       12.0110           0
     22666 MEMB     182      PMPG     H3X      HAL2     0.900000E-01   1.00800           0
     22667 MEMB     182      PMPG     H3Y      HAL2     0.900000E-01   1.00800           0
     22668 MEMB     182      PMPG     C34      CTL2    -0.180000       12.0110           0
     22669 MEMB     182      PMPG     H4X      HAL2     0.900000E-01   1.00800           0
     22670 MEMB     182      PMPG     H4Y      HAL2     0.900000E-01   1.00800           0
     22671 MEMB     182      PMPG     C35      CTL2    -0.180000       12.0110           0
     22672 MEMB     182      PMPG     H5X      HAL2     0.900000E-01   1.00800           0
     22673 MEMB     182      PMPG     H5Y      HAL2     0.900000E-01   1.00800           0
     22674 MEMB     182      PMPG     C36      CTL2    -0.180000       12.0110           0
     22675 MEMB     182      PMPG     H6X      HAL2     0.900000E-01   1.00800           0
     22676 MEMB     182      PMPG     H6Y      HAL2     0.900000E-01   1.00800           0
     22677 MEMB     182      PMPG     C37      CTL2    -0.180000       12.0110           0
     22678 MEMB     182      PMPG     H7X      HAL2     0.900000E-01   1.00800           0
     22679 MEMB     182      PMPG     H7Y      HAL2     0.900000E-01   1.00800           0
     22680 MEMB     182      PMPG     C38      CTL2    -0.180000       12.0110           0
     22681 MEMB     182      PMPG     H8X      HAL2     0.900000E-01   1.00800           0
     22682 MEMB     182      PMPG     H8Y      HAL2     0.900000E-01   1.00800           0
     22683 MEMB     182      PMPG     C39      CTL2    -0.180000       12.0110           0
     22684 MEMB     182      PMPG     H9X      HAL2     0.900000E-01   1.00800           0
     22685 MEMB     182      PMPG     H9Y      HAL2     0.900000E-01   1.00800           0
     22686 MEMB     182      PMPG     C310     CTL2    -0.180000       12.0110           0
     22687 MEMB     182      PMPG     H10X     HAL2     0.900000E-01   1.00800           0
     22688 MEMB     182      PMPG     H10Y     HAL2     0.900000E-01   1.00800           0
     22689 MEMB     182      PMPG     C311     CTL2    -0.180000       12.0110           0
     22690 MEMB     182      PMPG     H11X     HAL2     0.900000E-01   1.00800           0
     22691 MEMB     182      PMPG     H11Y     HAL2     0.900000E-01   1.00800           0
     22692 MEMB     182      PMPG     C312     CTL2    -0.180000       12.0110           0
     22693 MEMB     182      PMPG     H12X     HAL2     0.900000E-01   1.00800           0
     22694 MEMB     182      PMPG     H12Y     HAL2     0.900000E-01   1.00800           0
     22695 MEMB     182      PMPG     C313     CTL2    -0.180000       12.0110           0
     22696 MEMB     182      PMPG     H13X     HAL2     0.900000E-01   1.00800           0
     22697 MEMB     182      PMPG     H13Y     HAL2     0.900000E-01   1.00800           0
     22698 MEMB     182      PMPG     C314     CTL2    -0.180000       12.0110           0
     22699 MEMB     182      PMPG     H14X     HAL2     0.900000E-01   1.00800           0
     22700 MEMB     182      PMPG     H14Y     HAL2     0.900000E-01   1.00800           0
     22701 MEMB     182      PMPG     C315     CTL2    -0.180000       12.0110           0
     22702 MEMB     182      PMPG     H15X     HAL2     0.900000E-01   1.00800           0
     22703 MEMB     182      PMPG     H15Y     HAL2     0.900000E-01   1.00800           0
     22704 MEMB     182      PMPG     C316     CTL3    -0.270000       12.0110           0
     22705 MEMB     182      PMPG     H16X     HAL3     0.900000E-01   1.00800           0
     22706 MEMB     182      PMPG     H16Y     HAL3     0.900000E-01   1.00800           0
     22707 MEMB     182      PMPG     H16Z     HAL3     0.900000E-01   1.00800           0
     22708 MEMB     183      OYPE     N        NH3L    -0.300000       14.0070           0
     22709 MEMB     183      OYPE     HN1      HCL      0.330000       1.00800           0
     22710 MEMB     183      OYPE     HN2      HCL      0.330000       1.00800           0
     22711 MEMB     183      OYPE     HN3      HCL      0.330000       1.00800           0
     22712 MEMB     183      OYPE     C12      CTL2     0.130000       12.0110           0
     22713 MEMB     183      OYPE     H12A     HAL2     0.900000E-01   1.00800           0
     22714 MEMB     183      OYPE     H12B     HAL2     0.900000E-01   1.00800           0
     22715 MEMB     183      OYPE     C11      CTL2    -0.800000E-01   12.0110           0
     22716 MEMB     183      OYPE     H11A     HAL2     0.900000E-01   1.00800           0
     22717 MEMB     183      OYPE     H11B     HAL2     0.900000E-01   1.00800           0
     22718 MEMB     183      OYPE     P        PL        1.50000       30.9740           0
     22719 MEMB     183      OYPE     O13      O2L     -0.780000       15.9994           0
     22720 MEMB     183      OYPE     O14      O2L     -0.780000       15.9994           0
     22721 MEMB     183      OYPE     O11      OSLP    -0.570000       15.9994           0
     22722 MEMB     183      OYPE     O12      OSLP    -0.570000       15.9994           0
     22723 MEMB     183      OYPE     C1       CTL2    -0.800000E-01   12.0110           0
     22724 MEMB     183      OYPE     HA       HAL2     0.900000E-01   1.00800           0
     22725 MEMB     183      OYPE     HB       HAL2     0.900000E-01   1.00800           0
     22726 MEMB     183      OYPE     C2       CTL1     0.170000       12.0110           0
     22727 MEMB     183      OYPE     HS       HAL1     0.900000E-01   1.00800           0
     22728 MEMB     183      OYPE     O21      OSL     -0.490000       15.9994           0
     22729 MEMB     183      OYPE     C21      CL       0.900000       12.0110           0
     22730 MEMB     183      OYPE     O22      OBL     -0.630000       15.9994           0
     22731 MEMB     183      OYPE     C22      CTL2    -0.220000       12.0110           0
     22732 MEMB     183      OYPE     H2R      HAL2     0.900000E-01   1.00800           0
     22733 MEMB     183      OYPE     H2S      HAL2     0.900000E-01   1.00800           0
     22734 MEMB     183      OYPE     C3       CTL2     0.800000E-01   12.0110           0
     22735 MEMB     183      OYPE     HX       HAL2     0.900000E-01   1.00800           0
     22736 MEMB     183      OYPE     HY       HAL2     0.900000E-01   1.00800           0
     22737 MEMB     183      OYPE     O31      OSL     -0.490000       15.9994           0
     22738 MEMB     183      OYPE     C31      CL       0.900000       12.0110           0
     22739 MEMB     183      OYPE     O32      OBL     -0.630000       15.9994           0
     22740 MEMB     183      OYPE     C32      CTL2    -0.220000       12.0110           0
     22741 MEMB     183      OYPE     H2X      HAL2     0.900000E-01   1.00800           0
     22742 MEMB     183      OYPE     H2Y      HAL2     0.900000E-01   1.00800           0
     22743 MEMB     183      OYPE     C23      CTL2    -0.180000       12.0110           0
     22744 MEMB     183      OYPE     H3R      HAL2     0.900000E-01   1.00800           0
     22745 MEMB     183      OYPE     H3S      HAL2     0.900000E-01   1.00800           0
     22746 MEMB     183      OYPE     C24      CTL2    -0.180000       12.0110           0
     22747 MEMB     183      OYPE     H4R      HAL2     0.900000E-01   1.00800           0
     22748 MEMB     183      OYPE     H4S      HAL2     0.900000E-01   1.00800           0
     22749 MEMB     183      OYPE     C25      CTL2    -0.180000       12.0110           0
     22750 MEMB     183      OYPE     H5R      HAL2     0.900000E-01   1.00800           0
     22751 MEMB     183      OYPE     H5S      HAL2     0.900000E-01   1.00800           0
     22752 MEMB     183      OYPE     C26      CTL2    -0.180000       12.0110           0
     22753 MEMB     183      OYPE     H6R      HAL2     0.900000E-01   1.00800           0
     22754 MEMB     183      OYPE     H6S      HAL2     0.900000E-01   1.00800           0
     22755 MEMB     183      OYPE     C27      CTL2    -0.180000       12.0110           0
     22756 MEMB     183      OYPE     H7R      HAL2     0.900000E-01   1.00800           0
     22757 MEMB     183      OYPE     H7S      HAL2     0.900000E-01   1.00800           0
     22758 MEMB     183      OYPE     C28      CTL2    -0.180000       12.0110           0
     22759 MEMB     183      OYPE     H8R      HAL2     0.900000E-01   1.00800           0
     22760 MEMB     183      OYPE     H8S      HAL2     0.900000E-01   1.00800           0
     22761 MEMB     183      OYPE     C29      CEL1    -0.150000       12.0110           0
     22762 MEMB     183      OYPE     H9R      HEL1     0.150000       1.00800           0
     22763 MEMB     183      OYPE     C210     CEL1    -0.150000       12.0110           0
     22764 MEMB     183      OYPE     H10R     HEL1     0.150000       1.00800           0
     22765 MEMB     183      OYPE     C211     CTL2    -0.180000       12.0110           0
     22766 MEMB     183      OYPE     H11R     HAL2     0.900000E-01   1.00800           0
     22767 MEMB     183      OYPE     H11S     HAL2     0.900000E-01   1.00800           0
     22768 MEMB     183      OYPE     C212     CTL2    -0.180000       12.0110           0
     22769 MEMB     183      OYPE     H12R     HAL2     0.900000E-01   1.00800           0
     22770 MEMB     183      OYPE     H12S     HAL2     0.900000E-01   1.00800           0
     22771 MEMB     183      OYPE     C213     CTL2    -0.180000       12.0110           0
     22772 MEMB     183      OYPE     H13R     HAL2     0.900000E-01   1.00800           0
     22773 MEMB     183      OYPE     H13S     HAL2     0.900000E-01   1.00800           0
     22774 MEMB     183      OYPE     C214     CTL2    -0.180000       12.0110           0
     22775 MEMB     183      OYPE     H14R     HAL2     0.900000E-01   1.00800           0
     22776 MEMB     183      OYPE     H14S     HAL2     0.900000E-01   1.00800           0
     22777 MEMB     183      OYPE     C215     CTL2    -0.180000       12.0110           0
     22778 MEMB     183      OYPE     H15R     HAL2     0.900000E-01   1.00800           0
     22779 MEMB     183      OYPE     H15S     HAL2     0.900000E-01   1.00800           0
     22780 MEMB     183      OYPE     C216     CTL3    -0.270000       12.0110           0
     22781 MEMB     183      OYPE     H16R     HAL3     0.900000E-01   1.00800           0
     22782 MEMB     183      OYPE     H16S     HAL3     0.900000E-01   1.00800           0
     22783 MEMB     183      OYPE     H16T     HAL3     0.900000E-01   1.00800           0
     22784 MEMB     183      OYPE     C33      CTL2    -0.180000       12.0110           0
     22785 MEMB     183      OYPE     H3X      HAL2     0.900000E-01   1.00800           0
     22786 MEMB     183      OYPE     H3Y      HAL2     0.900000E-01   1.00800           0
     22787 MEMB     183      OYPE     C34      CTL2    -0.180000       12.0110           0
     22788 MEMB     183      OYPE     H4X      HAL2     0.900000E-01   1.00800           0
     22789 MEMB     183      OYPE     H4Y      HAL2     0.900000E-01   1.00800           0
     22790 MEMB     183      OYPE     C35      CTL2    -0.180000       12.0110           0
     22791 MEMB     183      OYPE     H5X      HAL2     0.900000E-01   1.00800           0
     22792 MEMB     183      OYPE     H5Y      HAL2     0.900000E-01   1.00800           0
     22793 MEMB     183      OYPE     C36      CTL2    -0.180000       12.0110           0
     22794 MEMB     183      OYPE     H6X      HAL2     0.900000E-01   1.00800           0
     22795 MEMB     183      OYPE     H6Y      HAL2     0.900000E-01   1.00800           0
     22796 MEMB     183      OYPE     C37      CTL2    -0.180000       12.0110           0
     22797 MEMB     183      OYPE     H7X      HAL2     0.900000E-01   1.00800           0
     22798 MEMB     183      OYPE     H7Y      HAL2     0.900000E-01   1.00800           0
     22799 MEMB     183      OYPE     C38      CTL2    -0.180000       12.0110           0
     22800 MEMB     183      OYPE     H8X      HAL2     0.900000E-01   1.00800           0
     22801 MEMB     183      OYPE     H8Y      HAL2     0.900000E-01   1.00800           0
     22802 MEMB     183      OYPE     C39      CEL1    -0.150000       12.0110           0
     22803 MEMB     183      OYPE     H9X      HEL1     0.150000       1.00800           0
     22804 MEMB     183      OYPE     C310     CEL1    -0.150000       12.0110           0
     22805 MEMB     183      OYPE     H10X     HEL1     0.150000       1.00800           0
     22806 MEMB     183      OYPE     C311     CTL2    -0.180000       12.0110           0
     22807 MEMB     183      OYPE     H11X     HAL2     0.900000E-01   1.00800           0
     22808 MEMB     183      OYPE     H11Y     HAL2     0.900000E-01   1.00800           0
     22809 MEMB     183      OYPE     C312     CTL2    -0.180000       12.0110           0
     22810 MEMB     183      OYPE     H12X     HAL2     0.900000E-01   1.00800           0
     22811 MEMB     183      OYPE     H12Y     HAL2     0.900000E-01   1.00800           0
     22812 MEMB     183      OYPE     C313     CTL2    -0.180000       12.0110           0
     22813 MEMB     183      OYPE     H13X     HAL2     0.900000E-01   1.00800           0
     22814 MEMB     183      OYPE     H13Y     HAL2     0.900000E-01   1.00800           0
     22815 MEMB     183      OYPE     C314     CTL2    -0.180000       12.0110           0
     22816 MEMB     183      OYPE     H14X     HAL2     0.900000E-01   1.00800           0
     22817 MEMB     183      OYPE     H14Y     HAL2     0.900000E-01   1.00800           0
     22818 MEMB     183      OYPE     C315     CTL2    -0.180000       12.0110           0
     22819 MEMB     183      OYPE     H15X     HAL2     0.900000E-01   1.00800           0
     22820 MEMB     183      OYPE     H15Y     HAL2     0.900000E-01   1.00800           0
     22821 MEMB     183      OYPE     C316     CTL2    -0.180000       12.0110           0
     22822 MEMB     183      OYPE     H16X     HAL2     0.900000E-01   1.00800           0
     22823 MEMB     183      OYPE     H16Y     HAL2     0.900000E-01   1.00800           0
     22824 MEMB     183      OYPE     C317     CTL2    -0.180000       12.0110           0
     22825 MEMB     183      OYPE     H17X     HAL2     0.900000E-01   1.00800           0
     22826 MEMB     183      OYPE     H17Y     HAL2     0.900000E-01   1.00800           0
     22827 MEMB     183      OYPE     C318     CTL3    -0.270000       12.0110           0
     22828 MEMB     183      OYPE     H18X     HAL3     0.900000E-01   1.00800           0
     22829 MEMB     183      OYPE     H18Y     HAL3     0.900000E-01   1.00800           0
     22830 MEMB     183      OYPE     H18Z     HAL3     0.900000E-01   1.00800           0
     22831 MEMB     184      POPE     N        NH3L    -0.300000       14.0070           0
     22832 MEMB     184      POPE     HN1      HCL      0.330000       1.00800           0
     22833 MEMB     184      POPE     HN2      HCL      0.330000       1.00800           0
     22834 MEMB     184      POPE     HN3      HCL      0.330000       1.00800           0
     22835 MEMB     184      POPE     C12      CTL2     0.130000       12.0110           0
     22836 MEMB     184      POPE     H12A     HAL2     0.900000E-01   1.00800           0
     22837 MEMB     184      POPE     H12B     HAL2     0.900000E-01   1.00800           0
     22838 MEMB     184      POPE     C11      CTL2    -0.800000E-01   12.0110           0
     22839 MEMB     184      POPE     H11A     HAL2     0.900000E-01   1.00800           0
     22840 MEMB     184      POPE     H11B     HAL2     0.900000E-01   1.00800           0
     22841 MEMB     184      POPE     P        PL        1.50000       30.9740           0
     22842 MEMB     184      POPE     O13      O2L     -0.780000       15.9994           0
     22843 MEMB     184      POPE     O14      O2L     -0.780000       15.9994           0
     22844 MEMB     184      POPE     O11      OSLP    -0.570000       15.9994           0
     22845 MEMB     184      POPE     O12      OSLP    -0.570000       15.9994           0
     22846 MEMB     184      POPE     C1       CTL2    -0.800000E-01   12.0110           0
     22847 MEMB     184      POPE     HA       HAL2     0.900000E-01   1.00800           0
     22848 MEMB     184      POPE     HB       HAL2     0.900000E-01   1.00800           0
     22849 MEMB     184      POPE     C2       CTL1     0.170000       12.0110           0
     22850 MEMB     184      POPE     HS       HAL1     0.900000E-01   1.00800           0
     22851 MEMB     184      POPE     O21      OSL     -0.490000       15.9994           0
     22852 MEMB     184      POPE     C21      CL       0.900000       12.0110           0
     22853 MEMB     184      POPE     O22      OBL     -0.630000       15.9994           0
     22854 MEMB     184      POPE     C22      CTL2    -0.220000       12.0110           0
     22855 MEMB     184      POPE     H2R      HAL2     0.900000E-01   1.00800           0
     22856 MEMB     184      POPE     H2S      HAL2     0.900000E-01   1.00800           0
     22857 MEMB     184      POPE     C3       CTL2     0.800000E-01   12.0110           0
     22858 MEMB     184      POPE     HX       HAL2     0.900000E-01   1.00800           0
     22859 MEMB     184      POPE     HY       HAL2     0.900000E-01   1.00800           0
     22860 MEMB     184      POPE     O31      OSL     -0.490000       15.9994           0
     22861 MEMB     184      POPE     C31      CL       0.900000       12.0110           0
     22862 MEMB     184      POPE     O32      OBL     -0.630000       15.9994           0
     22863 MEMB     184      POPE     C32      CTL2    -0.220000       12.0110           0
     22864 MEMB     184      POPE     H2X      HAL2     0.900000E-01   1.00800           0
     22865 MEMB     184      POPE     H2Y      HAL2     0.900000E-01   1.00800           0
     22866 MEMB     184      POPE     C23      CTL2    -0.180000       12.0110           0
     22867 MEMB     184      POPE     H3R      HAL2     0.900000E-01   1.00800           0
     22868 MEMB     184      POPE     H3S      HAL2     0.900000E-01   1.00800           0
     22869 MEMB     184      POPE     C24      CTL2    -0.180000       12.0110           0
     22870 MEMB     184      POPE     H4R      HAL2     0.900000E-01   1.00800           0
     22871 MEMB     184      POPE     H4S      HAL2     0.900000E-01   1.00800           0
     22872 MEMB     184      POPE     C25      CTL2    -0.180000       12.0110           0
     22873 MEMB     184      POPE     H5R      HAL2     0.900000E-01   1.00800           0
     22874 MEMB     184      POPE     H5S      HAL2     0.900000E-01   1.00800           0
     22875 MEMB     184      POPE     C26      CTL2    -0.180000       12.0110           0
     22876 MEMB     184      POPE     H6R      HAL2     0.900000E-01   1.00800           0
     22877 MEMB     184      POPE     H6S      HAL2     0.900000E-01   1.00800           0
     22878 MEMB     184      POPE     C27      CTL2    -0.180000       12.0110           0
     22879 MEMB     184      POPE     H7R      HAL2     0.900000E-01   1.00800           0
     22880 MEMB     184      POPE     H7S      HAL2     0.900000E-01   1.00800           0
     22881 MEMB     184      POPE     C28      CTL2    -0.180000       12.0110           0
     22882 MEMB     184      POPE     H8R      HAL2     0.900000E-01   1.00800           0
     22883 MEMB     184      POPE     H8S      HAL2     0.900000E-01   1.00800           0
     22884 MEMB     184      POPE     C29      CEL1    -0.150000       12.0110           0
     22885 MEMB     184      POPE     H91      HEL1     0.150000       1.00800           0
     22886 MEMB     184      POPE     C210     CEL1    -0.150000       12.0110           0
     22887 MEMB     184      POPE     H101     HEL1     0.150000       1.00800           0
     22888 MEMB     184      POPE     C211     CTL2    -0.180000       12.0110           0
     22889 MEMB     184      POPE     H11R     HAL2     0.900000E-01   1.00800           0
     22890 MEMB     184      POPE     H11S     HAL2     0.900000E-01   1.00800           0
     22891 MEMB     184      POPE     C212     CTL2    -0.180000       12.0110           0
     22892 MEMB     184      POPE     H12R     HAL2     0.900000E-01   1.00800           0
     22893 MEMB     184      POPE     H12S     HAL2     0.900000E-01   1.00800           0
     22894 MEMB     184      POPE     C213     CTL2    -0.180000       12.0110           0
     22895 MEMB     184      POPE     H13R     HAL2     0.900000E-01   1.00800           0
     22896 MEMB     184      POPE     H13S     HAL2     0.900000E-01   1.00800           0
     22897 MEMB     184      POPE     C214     CTL2    -0.180000       12.0110           0
     22898 MEMB     184      POPE     H14R     HAL2     0.900000E-01   1.00800           0
     22899 MEMB     184      POPE     H14S     HAL2     0.900000E-01   1.00800           0
     22900 MEMB     184      POPE     C215     CTL2    -0.180000       12.0110           0
     22901 MEMB     184      POPE     H15R     HAL2     0.900000E-01   1.00800           0
     22902 MEMB     184      POPE     H15S     HAL2     0.900000E-01   1.00800           0
     22903 MEMB     184      POPE     C216     CTL2    -0.180000       12.0110           0
     22904 MEMB     184      POPE     H16R     HAL2     0.900000E-01   1.00800           0
     22905 MEMB     184      POPE     H16S     HAL2     0.900000E-01   1.00800           0
     22906 MEMB     184      POPE     C217     CTL2    -0.180000       12.0110           0
     22907 MEMB     184      POPE     H17R     HAL2     0.900000E-01   1.00800           0
     22908 MEMB     184      POPE     H17S     HAL2     0.900000E-01   1.00800           0
     22909 MEMB     184      POPE     C218     CTL3    -0.270000       12.0110           0
     22910 MEMB     184      POPE     H18R     HAL3     0.900000E-01   1.00800           0
     22911 MEMB     184      POPE     H18S     HAL3     0.900000E-01   1.00800           0
     22912 MEMB     184      POPE     H18T     HAL3     0.900000E-01   1.00800           0
     22913 MEMB     184      POPE     C33      CTL2    -0.180000       12.0110           0
     22914 MEMB     184      POPE     H3X      HAL2     0.900000E-01   1.00800           0
     22915 MEMB     184      POPE     H3Y      HAL2     0.900000E-01   1.00800           0
     22916 MEMB     184      POPE     C34      CTL2    -0.180000       12.0110           0
     22917 MEMB     184      POPE     H4X      HAL2     0.900000E-01   1.00800           0
     22918 MEMB     184      POPE     H4Y      HAL2     0.900000E-01   1.00800           0
     22919 MEMB     184      POPE     C35      CTL2    -0.180000       12.0110           0
     22920 MEMB     184      POPE     H5X      HAL2     0.900000E-01   1.00800           0
     22921 MEMB     184      POPE     H5Y      HAL2     0.900000E-01   1.00800           0
     22922 MEMB     184      POPE     C36      CTL2    -0.180000       12.0110           0
     22923 MEMB     184      POPE     H6X      HAL2     0.900000E-01   1.00800           0
     22924 MEMB     184      POPE     H6Y      HAL2     0.900000E-01   1.00800           0
     22925 MEMB     184      POPE     C37      CTL2    -0.180000       12.0110           0
     22926 MEMB     184      POPE     H7X      HAL2     0.900000E-01   1.00800           0
     22927 MEMB     184      POPE     H7Y      HAL2     0.900000E-01   1.00800           0
     22928 MEMB     184      POPE     C38      CTL2    -0.180000       12.0110           0
     22929 MEMB     184      POPE     H8X      HAL2     0.900000E-01   1.00800           0
     22930 MEMB     184      POPE     H8Y      HAL2     0.900000E-01   1.00800           0
     22931 MEMB     184      POPE     C39      CTL2    -0.180000       12.0110           0
     22932 MEMB     184      POPE     H9X      HAL2     0.900000E-01   1.00800           0
     22933 MEMB     184      POPE     H9Y      HAL2     0.900000E-01   1.00800           0
     22934 MEMB     184      POPE     C310     CTL2    -0.180000       12.0110           0
     22935 MEMB     184      POPE     H10X     HAL2     0.900000E-01   1.00800           0
     22936 MEMB     184      POPE     H10Y     HAL2     0.900000E-01   1.00800           0
     22937 MEMB     184      POPE     C311     CTL2    -0.180000       12.0110           0
     22938 MEMB     184      POPE     H11X     HAL2     0.900000E-01   1.00800           0
     22939 MEMB     184      POPE     H11Y     HAL2     0.900000E-01   1.00800           0
     22940 MEMB     184      POPE     C312     CTL2    -0.180000       12.0110           0
     22941 MEMB     184      POPE     H12X     HAL2     0.900000E-01   1.00800           0
     22942 MEMB     184      POPE     H12Y     HAL2     0.900000E-01   1.00800           0
     22943 MEMB     184      POPE     C313     CTL2    -0.180000       12.0110           0
     22944 MEMB     184      POPE     H13X     HAL2     0.900000E-01   1.00800           0
     22945 MEMB     184      POPE     H13Y     HAL2     0.900000E-01   1.00800           0
     22946 MEMB     184      POPE     C314     CTL2    -0.180000       12.0110           0
     22947 MEMB     184      POPE     H14X     HAL2     0.900000E-01   1.00800           0
     22948 MEMB     184      POPE     H14Y     HAL2     0.900000E-01   1.00800           0
     22949 MEMB     184      POPE     C315     CTL2    -0.180000       12.0110           0
     22950 MEMB     184      POPE     H15X     HAL2     0.900000E-01   1.00800           0
     22951 MEMB     184      POPE     H15Y     HAL2     0.900000E-01   1.00800           0
     22952 MEMB     184      POPE     C316     CTL3    -0.270000       12.0110           0
     22953 MEMB     184      POPE     H16X     HAL3     0.900000E-01   1.00800           0
     22954 MEMB     184      POPE     H16Y     HAL3     0.900000E-01   1.00800           0
     22955 MEMB     184      POPE     H16Z     HAL3     0.900000E-01   1.00800           0
     22956 MEMB     185      PMPG     C13      CTL2     0.500000E-01   12.0110           0
     22957 MEMB     185      PMPG     H13A     HAL2     0.900000E-01   1.00800           0
     22958 MEMB     185      PMPG     H13B     HAL2     0.900000E-01   1.00800           0
     22959 MEMB     185      PMPG     OC3      OHL     -0.660000       15.9994           0
     22960 MEMB     185      PMPG     HO3      HOL      0.430000       1.00800           0
     22961 MEMB     185      PMPG     C12      CTL1     0.140000       12.0110           0
     22962 MEMB     185      PMPG     H12A     HAL1     0.900000E-01   1.00800           0
     22963 MEMB     185      PMPG     OC2      OHL     -0.660000       15.9994           0
     22964 MEMB     185      PMPG     HO2      HOL      0.430000       1.00800           0
     22965 MEMB     185      PMPG     C11      CTL2    -0.800000E-01   12.0110           0
     22966 MEMB     185      PMPG     H11A     HAL2     0.900000E-01   1.00800           0
     22967 MEMB     185      PMPG     H11B     HAL2     0.900000E-01   1.00800           0
     22968 MEMB     185      PMPG     P        PL        1.50000       30.9740           0
     22969 MEMB     185      PMPG     O13      O2L     -0.780000       15.9994           0
     22970 MEMB     185      PMPG     O14      O2L     -0.780000       15.9994           0
     22971 MEMB     185      PMPG     O11      OSLP    -0.570000       15.9994           0
     22972 MEMB     185      PMPG     O12      OSLP    -0.570000       15.9994           0
     22973 MEMB     185      PMPG     C1       CTL2    -0.800000E-01   12.0110           0
     22974 MEMB     185      PMPG     HA       HAL2     0.900000E-01   1.00800           0
     22975 MEMB     185      PMPG     HB       HAL2     0.900000E-01   1.00800           0
     22976 MEMB     185      PMPG     C2       CTL1     0.170000       12.0110           0
     22977 MEMB     185      PMPG     HS       HAL1     0.900000E-01   1.00800           0
     22978 MEMB     185      PMPG     O21      OSL     -0.490000       15.9994           0
     22979 MEMB     185      PMPG     C21      CL       0.900000       12.0110           0
     22980 MEMB     185      PMPG     O22      OBL     -0.630000       15.9994           0
     22981 MEMB     185      PMPG     C22      CTL2    -0.220000       12.0110           0
     22982 MEMB     185      PMPG     H2R      HAL2     0.900000E-01   1.00800           0
     22983 MEMB     185      PMPG     H2S      HAL2     0.900000E-01   1.00800           0
     22984 MEMB     185      PMPG     C3       CTL2     0.800000E-01   12.0110           0
     22985 MEMB     185      PMPG     HX       HAL2     0.900000E-01   1.00800           0
     22986 MEMB     185      PMPG     HY       HAL2     0.900000E-01   1.00800           0
     22987 MEMB     185      PMPG     O31      OSL     -0.490000       15.9994           0
     22988 MEMB     185      PMPG     C31      CL       0.900000       12.0110           0
     22989 MEMB     185      PMPG     O32      OBL     -0.630000       15.9994           0
     22990 MEMB     185      PMPG     C32      CTL2    -0.220000       12.0110           0
     22991 MEMB     185      PMPG     H2X      HAL2     0.900000E-01   1.00800           0
     22992 MEMB     185      PMPG     H2Y      HAL2     0.900000E-01   1.00800           0
     22993 MEMB     185      PMPG     C23      CTL2    -0.180000       12.0110           0
     22994 MEMB     185      PMPG     H3R      HAL2     0.900000E-01   1.00800           0
     22995 MEMB     185      PMPG     H3S      HAL2     0.900000E-01   1.00800           0
     22996 MEMB     185      PMPG     C24      CTL2    -0.180000       12.0110           0
     22997 MEMB     185      PMPG     H4R      HAL2     0.900000E-01   1.00800           0
     22998 MEMB     185      PMPG     H4S      HAL2     0.900000E-01   1.00800           0
     22999 MEMB     185      PMPG     C25      CTL2    -0.180000       12.0110           0
     23000 MEMB     185      PMPG     H5R      HAL2     0.900000E-01   1.00800           0
     23001 MEMB     185      PMPG     H5S      HAL2     0.900000E-01   1.00800           0
     23002 MEMB     185      PMPG     C26      CTL2    -0.180000       12.0110           0
     23003 MEMB     185      PMPG     H6R      HAL2     0.900000E-01   1.00800           0
     23004 MEMB     185      PMPG     H6S      HAL2     0.900000E-01   1.00800           0
     23005 MEMB     185      PMPG     C27      CTL2    -0.180000       12.0110           0
     23006 MEMB     185      PMPG     H7R      HAL2     0.900000E-01   1.00800           0
     23007 MEMB     185      PMPG     H7S      HAL2     0.900000E-01   1.00800           0
     23008 MEMB     185      PMPG     C28      CTL2    -0.180000       12.0110           0
     23009 MEMB     185      PMPG     H8R      HAL2     0.900000E-01   1.00800           0
     23010 MEMB     185      PMPG     H8S      HAL2     0.900000E-01   1.00800           0
     23011 MEMB     185      PMPG     C29      CG3RC1  -0.900000E-01   12.0110           0
     23012 MEMB     185      PMPG     H9R      HGA1     0.900000E-01   1.00800           0
     23013 MEMB     185      PMPG     C217     CG3C31  -0.180000       12.0110           0
     23014 MEMB     185      PMPG     H17R     HGA2     0.900000E-01   1.00800           0
     23015 MEMB     185      PMPG     H17S     HGA2     0.900000E-01   1.00800           0
     23016 MEMB     185      PMPG     C210     CG3RC1  -0.900000E-01   12.0110           0
     23017 MEMB     185      PMPG     H10R     HGA1     0.900000E-01   1.00800           0
     23018 MEMB     185      PMPG     C211     CTL2    -0.180000       12.0110           0
     23019 MEMB     185      PMPG     H11R     HAL2     0.900000E-01   1.00800           0
     23020 MEMB     185      PMPG     H11S     HAL2     0.900000E-01   1.00800           0
     23021 MEMB     185      PMPG     C212     CTL2    -0.180000       12.0110           0
     23022 MEMB     185      PMPG     H12R     HAL2     0.900000E-01   1.00800           0
     23023 MEMB     185      PMPG     H12S     HAL2     0.900000E-01   1.00800           0
     23024 MEMB     185      PMPG     C213     CTL2    -0.180000       12.0110           0
     23025 MEMB     185      PMPG     H13R     HAL2     0.900000E-01   1.00800           0
     23026 MEMB     185      PMPG     H13S     HAL2     0.900000E-01   1.00800           0
     23027 MEMB     185      PMPG     C214     CTL2    -0.180000       12.0110           0
     23028 MEMB     185      PMPG     H14R     HAL2     0.900000E-01   1.00800           0
     23029 MEMB     185      PMPG     H14S     HAL2     0.900000E-01   1.00800           0
     23030 MEMB     185      PMPG     C215     CTL2    -0.180000       12.0110           0
     23031 MEMB     185      PMPG     H15R     HAL2     0.900000E-01   1.00800           0
     23032 MEMB     185      PMPG     H15S     HAL2     0.900000E-01   1.00800           0
     23033 MEMB     185      PMPG     C216     CTL3    -0.270000       12.0110           0
     23034 MEMB     185      PMPG     H16R     HAL3     0.900000E-01   1.00800           0
     23035 MEMB     185      PMPG     H16S     HAL3     0.900000E-01   1.00800           0
     23036 MEMB     185      PMPG     H16T     HAL3     0.900000E-01   1.00800           0
     23037 MEMB     185      PMPG     C33      CTL2    -0.180000       12.0110           0
     23038 MEMB     185      PMPG     H3X      HAL2     0.900000E-01   1.00800           0
     23039 MEMB     185      PMPG     H3Y      HAL2     0.900000E-01   1.00800           0
     23040 MEMB     185      PMPG     C34      CTL2    -0.180000       12.0110           0
     23041 MEMB     185      PMPG     H4X      HAL2     0.900000E-01   1.00800           0
     23042 MEMB     185      PMPG     H4Y      HAL2     0.900000E-01   1.00800           0
     23043 MEMB     185      PMPG     C35      CTL2    -0.180000       12.0110           0
     23044 MEMB     185      PMPG     H5X      HAL2     0.900000E-01   1.00800           0
     23045 MEMB     185      PMPG     H5Y      HAL2     0.900000E-01   1.00800           0
     23046 MEMB     185      PMPG     C36      CTL2    -0.180000       12.0110           0
     23047 MEMB     185      PMPG     H6X      HAL2     0.900000E-01   1.00800           0
     23048 MEMB     185      PMPG     H6Y      HAL2     0.900000E-01   1.00800           0
     23049 MEMB     185      PMPG     C37      CTL2    -0.180000       12.0110           0
     23050 MEMB     185      PMPG     H7X      HAL2     0.900000E-01   1.00800           0
     23051 MEMB     185      PMPG     H7Y      HAL2     0.900000E-01   1.00800           0
     23052 MEMB     185      PMPG     C38      CTL2    -0.180000       12.0110           0
     23053 MEMB     185      PMPG     H8X      HAL2     0.900000E-01   1.00800           0
     23054 MEMB     185      PMPG     H8Y      HAL2     0.900000E-01   1.00800           0
     23055 MEMB     185      PMPG     C39      CTL2    -0.180000       12.0110           0
     23056 MEMB     185      PMPG     H9X      HAL2     0.900000E-01   1.00800           0
     23057 MEMB     185      PMPG     H9Y      HAL2     0.900000E-01   1.00800           0
     23058 MEMB     185      PMPG     C310     CTL2    -0.180000       12.0110           0
     23059 MEMB     185      PMPG     H10X     HAL2     0.900000E-01   1.00800           0
     23060 MEMB     185      PMPG     H10Y     HAL2     0.900000E-01   1.00800           0
     23061 MEMB     185      PMPG     C311     CTL2    -0.180000       12.0110           0
     23062 MEMB     185      PMPG     H11X     HAL2     0.900000E-01   1.00800           0
     23063 MEMB     185      PMPG     H11Y     HAL2     0.900000E-01   1.00800           0
     23064 MEMB     185      PMPG     C312     CTL2    -0.180000       12.0110           0
     23065 MEMB     185      PMPG     H12X     HAL2     0.900000E-01   1.00800           0
     23066 MEMB     185      PMPG     H12Y     HAL2     0.900000E-01   1.00800           0
     23067 MEMB     185      PMPG     C313     CTL2    -0.180000       12.0110           0
     23068 MEMB     185      PMPG     H13X     HAL2     0.900000E-01   1.00800           0
     23069 MEMB     185      PMPG     H13Y     HAL2     0.900000E-01   1.00800           0
     23070 MEMB     185      PMPG     C314     CTL2    -0.180000       12.0110           0
     23071 MEMB     185      PMPG     H14X     HAL2     0.900000E-01   1.00800           0
     23072 MEMB     185      PMPG     H14Y     HAL2     0.900000E-01   1.00800           0
     23073 MEMB     185      PMPG     C315     CTL2    -0.180000       12.0110           0
     23074 MEMB     185      PMPG     H15X     HAL2     0.900000E-01   1.00800           0
     23075 MEMB     185      PMPG     H15Y     HAL2     0.900000E-01   1.00800           0
     23076 MEMB     185      PMPG     C316     CTL3    -0.270000       12.0110           0
     23077 MEMB     185      PMPG     H16X     HAL3     0.900000E-01   1.00800           0
     23078 MEMB     185      PMPG     H16Y     HAL3     0.900000E-01   1.00800           0
     23079 MEMB     185      PMPG     H16Z     HAL3     0.900000E-01   1.00800           0
     23080 MEMB     186      PMPE     N        NH3L    -0.300000       14.0070           0
     23081 MEMB     186      PMPE     HN1      HCL      0.330000       1.00800           0
     23082 MEMB     186      PMPE     HN2      HCL      0.330000       1.00800           0
     23083 MEMB     186      PMPE     HN3      HCL      0.330000       1.00800           0
     23084 MEMB     186      PMPE     C12      CTL2     0.130000       12.0110           0
     23085 MEMB     186      PMPE     H12A     HAL2     0.900000E-01   1.00800           0
     23086 MEMB     186      PMPE     H12B     HAL2     0.900000E-01   1.00800           0
     23087 MEMB     186      PMPE     C11      CTL2    -0.800000E-01   12.0110           0
     23088 MEMB     186      PMPE     H11A     HAL2     0.900000E-01   1.00800           0
     23089 MEMB     186      PMPE     H11B     HAL2     0.900000E-01   1.00800           0
     23090 MEMB     186      PMPE     P        PL        1.50000       30.9740           0
     23091 MEMB     186      PMPE     O13      O2L     -0.780000       15.9994           0
     23092 MEMB     186      PMPE     O14      O2L     -0.780000       15.9994           0
     23093 MEMB     186      PMPE     O11      OSLP    -0.570000       15.9994           0
     23094 MEMB     186      PMPE     O12      OSLP    -0.570000       15.9994           0
     23095 MEMB     186      PMPE     C1       CTL2    -0.800000E-01   12.0110           0
     23096 MEMB     186      PMPE     HA       HAL2     0.900000E-01   1.00800           0
     23097 MEMB     186      PMPE     HB       HAL2     0.900000E-01   1.00800           0
     23098 MEMB     186      PMPE     C2       CTL1     0.170000       12.0110           0
     23099 MEMB     186      PMPE     HS       HAL1     0.900000E-01   1.00800           0
     23100 MEMB     186      PMPE     O21      OSL     -0.490000       15.9994           0
     23101 MEMB     186      PMPE     C21      CL       0.900000       12.0110           0
     23102 MEMB     186      PMPE     O22      OBL     -0.630000       15.9994           0
     23103 MEMB     186      PMPE     C22      CTL2    -0.220000       12.0110           0
     23104 MEMB     186      PMPE     H2R      HAL2     0.900000E-01   1.00800           0
     23105 MEMB     186      PMPE     H2S      HAL2     0.900000E-01   1.00800           0
     23106 MEMB     186      PMPE     C3       CTL2     0.800000E-01   12.0110           0
     23107 MEMB     186      PMPE     HX       HAL2     0.900000E-01   1.00800           0
     23108 MEMB     186      PMPE     HY       HAL2     0.900000E-01   1.00800           0
     23109 MEMB     186      PMPE     O31      OSL     -0.490000       15.9994           0
     23110 MEMB     186      PMPE     C31      CL       0.900000       12.0110           0
     23111 MEMB     186      PMPE     O32      OBL     -0.630000       15.9994           0
     23112 MEMB     186      PMPE     C32      CTL2    -0.220000       12.0110           0
     23113 MEMB     186      PMPE     H2X      HAL2     0.900000E-01   1.00800           0
     23114 MEMB     186      PMPE     H2Y      HAL2     0.900000E-01   1.00800           0
     23115 MEMB     186      PMPE     C23      CTL2    -0.180000       12.0110           0
     23116 MEMB     186      PMPE     H3R      HAL2     0.900000E-01   1.00800           0
     23117 MEMB     186      PMPE     H3S      HAL2     0.900000E-01   1.00800           0
     23118 MEMB     186      PMPE     C24      CTL2    -0.180000       12.0110           0
     23119 MEMB     186      PMPE     H4R      HAL2     0.900000E-01   1.00800           0
     23120 MEMB     186      PMPE     H4S      HAL2     0.900000E-01   1.00800           0
     23121 MEMB     186      PMPE     C25      CTL2    -0.180000       12.0110           0
     23122 MEMB     186      PMPE     H5R      HAL2     0.900000E-01   1.00800           0
     23123 MEMB     186      PMPE     H5S      HAL2     0.900000E-01   1.00800           0
     23124 MEMB     186      PMPE     C26      CTL2    -0.180000       12.0110           0
     23125 MEMB     186      PMPE     H6R      HAL2     0.900000E-01   1.00800           0
     23126 MEMB     186      PMPE     H6S      HAL2     0.900000E-01   1.00800           0
     23127 MEMB     186      PMPE     C27      CTL2    -0.180000       12.0110           0
     23128 MEMB     186      PMPE     H7R      HAL2     0.900000E-01   1.00800           0
     23129 MEMB     186      PMPE     H7S      HAL2     0.900000E-01   1.00800           0
     23130 MEMB     186      PMPE     C28      CTL2    -0.180000       12.0110           0
     23131 MEMB     186      PMPE     H8R      HAL2     0.900000E-01   1.00800           0
     23132 MEMB     186      PMPE     H8S      HAL2     0.900000E-01   1.00800           0
     23133 MEMB     186      PMPE     C29      CG3RC1  -0.900000E-01   12.0110           0
     23134 MEMB     186      PMPE     H9R      HGA1     0.900000E-01   1.00800           0
     23135 MEMB     186      PMPE     C217     CG3C31  -0.180000       12.0110           0
     23136 MEMB     186      PMPE     H17R     HGA2     0.900000E-01   1.00800           0
     23137 MEMB     186      PMPE     H17S     HGA2     0.900000E-01   1.00800           0
     23138 MEMB     186      PMPE     C210     CG3RC1  -0.900000E-01   12.0110           0
     23139 MEMB     186      PMPE     H10R     HGA1     0.900000E-01   1.00800           0
     23140 MEMB     186      PMPE     C211     CTL2    -0.180000       12.0110           0
     23141 MEMB     186      PMPE     H11R     HAL2     0.900000E-01   1.00800           0
     23142 MEMB     186      PMPE     H11S     HAL2     0.900000E-01   1.00800           0
     23143 MEMB     186      PMPE     C212     CTL2    -0.180000       12.0110           0
     23144 MEMB     186      PMPE     H12R     HAL2     0.900000E-01   1.00800           0
     23145 MEMB     186      PMPE     H12S     HAL2     0.900000E-01   1.00800           0
     23146 MEMB     186      PMPE     C213     CTL2    -0.180000       12.0110           0
     23147 MEMB     186      PMPE     H13R     HAL2     0.900000E-01   1.00800           0
     23148 MEMB     186      PMPE     H13S     HAL2     0.900000E-01   1.00800           0
     23149 MEMB     186      PMPE     C214     CTL2    -0.180000       12.0110           0
     23150 MEMB     186      PMPE     H14R     HAL2     0.900000E-01   1.00800           0
     23151 MEMB     186      PMPE     H14S     HAL2     0.900000E-01   1.00800           0
     23152 MEMB     186      PMPE     C215     CTL2    -0.180000       12.0110           0
     23153 MEMB     186      PMPE     H15R     HAL2     0.900000E-01   1.00800           0
     23154 MEMB     186      PMPE     H15S     HAL2     0.900000E-01   1.00800           0
     23155 MEMB     186      PMPE     C216     CTL3    -0.270000       12.0110           0
     23156 MEMB     186      PMPE     H16R     HAL3     0.900000E-01   1.00800           0
     23157 MEMB     186      PMPE     H16S     HAL3     0.900000E-01   1.00800           0
     23158 MEMB     186      PMPE     H16T     HAL3     0.900000E-01   1.00800           0
     23159 MEMB     186      PMPE     C33      CTL2    -0.180000       12.0110           0
     23160 MEMB     186      PMPE     H3X      HAL2     0.900000E-01   1.00800           0
     23161 MEMB     186      PMPE     H3Y      HAL2     0.900000E-01   1.00800           0
     23162 MEMB     186      PMPE     C34      CTL2    -0.180000       12.0110           0
     23163 MEMB     186      PMPE     H4X      HAL2     0.900000E-01   1.00800           0
     23164 MEMB     186      PMPE     H4Y      HAL2     0.900000E-01   1.00800           0
     23165 MEMB     186      PMPE     C35      CTL2    -0.180000       12.0110           0
     23166 MEMB     186      PMPE     H5X      HAL2     0.900000E-01   1.00800           0
     23167 MEMB     186      PMPE     H5Y      HAL2     0.900000E-01   1.00800           0
     23168 MEMB     186      PMPE     C36      CTL2    -0.180000       12.0110           0
     23169 MEMB     186      PMPE     H6X      HAL2     0.900000E-01   1.00800           0
     23170 MEMB     186      PMPE     H6Y      HAL2     0.900000E-01   1.00800           0
     23171 MEMB     186      PMPE     C37      CTL2    -0.180000       12.0110           0
     23172 MEMB     186      PMPE     H7X      HAL2     0.900000E-01   1.00800           0
     23173 MEMB     186      PMPE     H7Y      HAL2     0.900000E-01   1.00800           0
     23174 MEMB     186      PMPE     C38      CTL2    -0.180000       12.0110           0
     23175 MEMB     186      PMPE     H8X      HAL2     0.900000E-01   1.00800           0
     23176 MEMB     186      PMPE     H8Y      HAL2     0.900000E-01   1.00800           0
     23177 MEMB     186      PMPE     C39      CTL2    -0.180000       12.0110           0
     23178 MEMB     186      PMPE     H9X      HAL2     0.900000E-01   1.00800           0
     23179 MEMB     186      PMPE     H9Y      HAL2     0.900000E-01   1.00800           0
     23180 MEMB     186      PMPE     C310     CTL2    -0.180000       12.0110           0
     23181 MEMB     186      PMPE     H10X     HAL2     0.900000E-01   1.00800           0
     23182 MEMB     186      PMPE     H10Y     HAL2     0.900000E-01   1.00800           0
     23183 MEMB     186      PMPE     C311     CTL2    -0.180000       12.0110           0
     23184 MEMB     186      PMPE     H11X     HAL2     0.900000E-01   1.00800           0
     23185 MEMB     186      PMPE     H11Y     HAL2     0.900000E-01   1.00800           0
     23186 MEMB     186      PMPE     C312     CTL2    -0.180000       12.0110           0
     23187 MEMB     186      PMPE     H12X     HAL2     0.900000E-01   1.00800           0
     23188 MEMB     186      PMPE     H12Y     HAL2     0.900000E-01   1.00800           0
     23189 MEMB     186      PMPE     C313     CTL2    -0.180000       12.0110           0
     23190 MEMB     186      PMPE     H13X     HAL2     0.900000E-01   1.00800           0
     23191 MEMB     186      PMPE     H13Y     HAL2     0.900000E-01   1.00800           0
     23192 MEMB     186      PMPE     C314     CTL2    -0.180000       12.0110           0
     23193 MEMB     186      PMPE     H14X     HAL2     0.900000E-01   1.00800           0
     23194 MEMB     186      PMPE     H14Y     HAL2     0.900000E-01   1.00800           0
     23195 MEMB     186      PMPE     C315     CTL2    -0.180000       12.0110           0
     23196 MEMB     186      PMPE     H15X     HAL2     0.900000E-01   1.00800           0
     23197 MEMB     186      PMPE     H15Y     HAL2     0.900000E-01   1.00800           0
     23198 MEMB     186      PMPE     C316     CTL3    -0.270000       12.0110           0
     23199 MEMB     186      PMPE     H16X     HAL3     0.900000E-01   1.00800           0
     23200 MEMB     186      PMPE     H16Y     HAL3     0.900000E-01   1.00800           0
     23201 MEMB     186      PMPE     H16Z     HAL3     0.900000E-01   1.00800           0
     23202 MEMB     187      PMPG     C13      CTL2     0.500000E-01   12.0110           0
     23203 MEMB     187      PMPG     H13A     HAL2     0.900000E-01   1.00800           0
     23204 MEMB     187      PMPG     H13B     HAL2     0.900000E-01   1.00800           0
     23205 MEMB     187      PMPG     OC3      OHL     -0.660000       15.9994           0
     23206 MEMB     187      PMPG     HO3      HOL      0.430000       1.00800           0
     23207 MEMB     187      PMPG     C12      CTL1     0.140000       12.0110           0
     23208 MEMB     187      PMPG     H12A     HAL1     0.900000E-01   1.00800           0
     23209 MEMB     187      PMPG     OC2      OHL     -0.660000       15.9994           0
     23210 MEMB     187      PMPG     HO2      HOL      0.430000       1.00800           0
     23211 MEMB     187      PMPG     C11      CTL2    -0.800000E-01   12.0110           0
     23212 MEMB     187      PMPG     H11A     HAL2     0.900000E-01   1.00800           0
     23213 MEMB     187      PMPG     H11B     HAL2     0.900000E-01   1.00800           0
     23214 MEMB     187      PMPG     P        PL        1.50000       30.9740           0
     23215 MEMB     187      PMPG     O13      O2L     -0.780000       15.9994           0
     23216 MEMB     187      PMPG     O14      O2L     -0.780000       15.9994           0
     23217 MEMB     187      PMPG     O11      OSLP    -0.570000       15.9994           0
     23218 MEMB     187      PMPG     O12      OSLP    -0.570000       15.9994           0
     23219 MEMB     187      PMPG     C1       CTL2    -0.800000E-01   12.0110           0
     23220 MEMB     187      PMPG     HA       HAL2     0.900000E-01   1.00800           0
     23221 MEMB     187      PMPG     HB       HAL2     0.900000E-01   1.00800           0
     23222 MEMB     187      PMPG     C2       CTL1     0.170000       12.0110           0
     23223 MEMB     187      PMPG     HS       HAL1     0.900000E-01   1.00800           0
     23224 MEMB     187      PMPG     O21      OSL     -0.490000       15.9994           0
     23225 MEMB     187      PMPG     C21      CL       0.900000       12.0110           0
     23226 MEMB     187      PMPG     O22      OBL     -0.630000       15.9994           0
     23227 MEMB     187      PMPG     C22      CTL2    -0.220000       12.0110           0
     23228 MEMB     187      PMPG     H2R      HAL2     0.900000E-01   1.00800           0
     23229 MEMB     187      PMPG     H2S      HAL2     0.900000E-01   1.00800           0
     23230 MEMB     187      PMPG     C3       CTL2     0.800000E-01   12.0110           0
     23231 MEMB     187      PMPG     HX       HAL2     0.900000E-01   1.00800           0
     23232 MEMB     187      PMPG     HY       HAL2     0.900000E-01   1.00800           0
     23233 MEMB     187      PMPG     O31      OSL     -0.490000       15.9994           0
     23234 MEMB     187      PMPG     C31      CL       0.900000       12.0110           0
     23235 MEMB     187      PMPG     O32      OBL     -0.630000       15.9994           0
     23236 MEMB     187      PMPG     C32      CTL2    -0.220000       12.0110           0
     23237 MEMB     187      PMPG     H2X      HAL2     0.900000E-01   1.00800           0
     23238 MEMB     187      PMPG     H2Y      HAL2     0.900000E-01   1.00800           0
     23239 MEMB     187      PMPG     C23      CTL2    -0.180000       12.0110           0
     23240 MEMB     187      PMPG     H3R      HAL2     0.900000E-01   1.00800           0
     23241 MEMB     187      PMPG     H3S      HAL2     0.900000E-01   1.00800           0
     23242 MEMB     187      PMPG     C24      CTL2    -0.180000       12.0110           0
     23243 MEMB     187      PMPG     H4R      HAL2     0.900000E-01   1.00800           0
     23244 MEMB     187      PMPG     H4S      HAL2     0.900000E-01   1.00800           0
     23245 MEMB     187      PMPG     C25      CTL2    -0.180000       12.0110           0
     23246 MEMB     187      PMPG     H5R      HAL2     0.900000E-01   1.00800           0
     23247 MEMB     187      PMPG     H5S      HAL2     0.900000E-01   1.00800           0
     23248 MEMB     187      PMPG     C26      CTL2    -0.180000       12.0110           0
     23249 MEMB     187      PMPG     H6R      HAL2     0.900000E-01   1.00800           0
     23250 MEMB     187      PMPG     H6S      HAL2     0.900000E-01   1.00800           0
     23251 MEMB     187      PMPG     C27      CTL2    -0.180000       12.0110           0
     23252 MEMB     187      PMPG     H7R      HAL2     0.900000E-01   1.00800           0
     23253 MEMB     187      PMPG     H7S      HAL2     0.900000E-01   1.00800           0
     23254 MEMB     187      PMPG     C28      CTL2    -0.180000       12.0110           0
     23255 MEMB     187      PMPG     H8R      HAL2     0.900000E-01   1.00800           0
     23256 MEMB     187      PMPG     H8S      HAL2     0.900000E-01   1.00800           0
     23257 MEMB     187      PMPG     C29      CG3RC1  -0.900000E-01   12.0110           0
     23258 MEMB     187      PMPG     H9R      HGA1     0.900000E-01   1.00800           0
     23259 MEMB     187      PMPG     C217     CG3C31  -0.180000       12.0110           0
     23260 MEMB     187      PMPG     H17R     HGA2     0.900000E-01   1.00800           0
     23261 MEMB     187      PMPG     H17S     HGA2     0.900000E-01   1.00800           0
     23262 MEMB     187      PMPG     C210     CG3RC1  -0.900000E-01   12.0110           0
     23263 MEMB     187      PMPG     H10R     HGA1     0.900000E-01   1.00800           0
     23264 MEMB     187      PMPG     C211     CTL2    -0.180000       12.0110           0
     23265 MEMB     187      PMPG     H11R     HAL2     0.900000E-01   1.00800           0
     23266 MEMB     187      PMPG     H11S     HAL2     0.900000E-01   1.00800           0
     23267 MEMB     187      PMPG     C212     CTL2    -0.180000       12.0110           0
     23268 MEMB     187      PMPG     H12R     HAL2     0.900000E-01   1.00800           0
     23269 MEMB     187      PMPG     H12S     HAL2     0.900000E-01   1.00800           0
     23270 MEMB     187      PMPG     C213     CTL2    -0.180000       12.0110           0
     23271 MEMB     187      PMPG     H13R     HAL2     0.900000E-01   1.00800           0
     23272 MEMB     187      PMPG     H13S     HAL2     0.900000E-01   1.00800           0
     23273 MEMB     187      PMPG     C214     CTL2    -0.180000       12.0110           0
     23274 MEMB     187      PMPG     H14R     HAL2     0.900000E-01   1.00800           0
     23275 MEMB     187      PMPG     H14S     HAL2     0.900000E-01   1.00800           0
     23276 MEMB     187      PMPG     C215     CTL2    -0.180000       12.0110           0
     23277 MEMB     187      PMPG     H15R     HAL2     0.900000E-01   1.00800           0
     23278 MEMB     187      PMPG     H15S     HAL2     0.900000E-01   1.00800           0
     23279 MEMB     187      PMPG     C216     CTL3    -0.270000       12.0110           0
     23280 MEMB     187      PMPG     H16R     HAL3     0.900000E-01   1.00800           0
     23281 MEMB     187      PMPG     H16S     HAL3     0.900000E-01   1.00800           0
     23282 MEMB     187      PMPG     H16T     HAL3     0.900000E-01   1.00800           0
     23283 MEMB     187      PMPG     C33      CTL2    -0.180000       12.0110           0
     23284 MEMB     187      PMPG     H3X      HAL2     0.900000E-01   1.00800           0
     23285 MEMB     187      PMPG     H3Y      HAL2     0.900000E-01   1.00800           0
     23286 MEMB     187      PMPG     C34      CTL2    -0.180000       12.0110           0
     23287 MEMB     187      PMPG     H4X      HAL2     0.900000E-01   1.00800           0
     23288 MEMB     187      PMPG     H4Y      HAL2     0.900000E-01   1.00800           0
     23289 MEMB     187      PMPG     C35      CTL2    -0.180000       12.0110           0
     23290 MEMB     187      PMPG     H5X      HAL2     0.900000E-01   1.00800           0
     23291 MEMB     187      PMPG     H5Y      HAL2     0.900000E-01   1.00800           0
     23292 MEMB     187      PMPG     C36      CTL2    -0.180000       12.0110           0
     23293 MEMB     187      PMPG     H6X      HAL2     0.900000E-01   1.00800           0
     23294 MEMB     187      PMPG     H6Y      HAL2     0.900000E-01   1.00800           0
     23295 MEMB     187      PMPG     C37      CTL2    -0.180000       12.0110           0
     23296 MEMB     187      PMPG     H7X      HAL2     0.900000E-01   1.00800           0
     23297 MEMB     187      PMPG     H7Y      HAL2     0.900000E-01   1.00800           0
     23298 MEMB     187      PMPG     C38      CTL2    -0.180000       12.0110           0
     23299 MEMB     187      PMPG     H8X      HAL2     0.900000E-01   1.00800           0
     23300 MEMB     187      PMPG     H8Y      HAL2     0.900000E-01   1.00800           0
     23301 MEMB     187      PMPG     C39      CTL2    -0.180000       12.0110           0
     23302 MEMB     187      PMPG     H9X      HAL2     0.900000E-01   1.00800           0
     23303 MEMB     187      PMPG     H9Y      HAL2     0.900000E-01   1.00800           0
     23304 MEMB     187      PMPG     C310     CTL2    -0.180000       12.0110           0
     23305 MEMB     187      PMPG     H10X     HAL2     0.900000E-01   1.00800           0
     23306 MEMB     187      PMPG     H10Y     HAL2     0.900000E-01   1.00800           0
     23307 MEMB     187      PMPG     C311     CTL2    -0.180000       12.0110           0
     23308 MEMB     187      PMPG     H11X     HAL2     0.900000E-01   1.00800           0
     23309 MEMB     187      PMPG     H11Y     HAL2     0.900000E-01   1.00800           0
     23310 MEMB     187      PMPG     C312     CTL2    -0.180000       12.0110           0
     23311 MEMB     187      PMPG     H12X     HAL2     0.900000E-01   1.00800           0
     23312 MEMB     187      PMPG     H12Y     HAL2     0.900000E-01   1.00800           0
     23313 MEMB     187      PMPG     C313     CTL2    -0.180000       12.0110           0
     23314 MEMB     187      PMPG     H13X     HAL2     0.900000E-01   1.00800           0
     23315 MEMB     187      PMPG     H13Y     HAL2     0.900000E-01   1.00800           0
     23316 MEMB     187      PMPG     C314     CTL2    -0.180000       12.0110           0
     23317 MEMB     187      PMPG     H14X     HAL2     0.900000E-01   1.00800           0
     23318 MEMB     187      PMPG     H14Y     HAL2     0.900000E-01   1.00800           0
     23319 MEMB     187      PMPG     C315     CTL2    -0.180000       12.0110           0
     23320 MEMB     187      PMPG     H15X     HAL2     0.900000E-01   1.00800           0
     23321 MEMB     187      PMPG     H15Y     HAL2     0.900000E-01   1.00800           0
     23322 MEMB     187      PMPG     C316     CTL3    -0.270000       12.0110           0
     23323 MEMB     187      PMPG     H16X     HAL3     0.900000E-01   1.00800           0
     23324 MEMB     187      PMPG     H16Y     HAL3     0.900000E-01   1.00800           0
     23325 MEMB     187      PMPG     H16Z     HAL3     0.900000E-01   1.00800           0
     23326 MEMB     188      PYPG     C13      CTL2     0.500000E-01   12.0110           0
     23327 MEMB     188      PYPG     H13A     HAL2     0.900000E-01   1.00800           0
     23328 MEMB     188      PYPG     H13B     HAL2     0.900000E-01   1.00800           0
     23329 MEMB     188      PYPG     OC3      OHL     -0.660000       15.9994           0
     23330 MEMB     188      PYPG     HO3      HOL      0.430000       1.00800           0
     23331 MEMB     188      PYPG     C12      CTL1     0.140000       12.0110           0
     23332 MEMB     188      PYPG     H12A     HAL1     0.900000E-01   1.00800           0
     23333 MEMB     188      PYPG     OC2      OHL     -0.660000       15.9994           0
     23334 MEMB     188      PYPG     HO2      HOL      0.430000       1.00800           0
     23335 MEMB     188      PYPG     C11      CTL2    -0.800000E-01   12.0110           0
     23336 MEMB     188      PYPG     H11A     HAL2     0.900000E-01   1.00800           0
     23337 MEMB     188      PYPG     H11B     HAL2     0.900000E-01   1.00800           0
     23338 MEMB     188      PYPG     P        PL        1.50000       30.9740           0
     23339 MEMB     188      PYPG     O13      O2L     -0.780000       15.9994           0
     23340 MEMB     188      PYPG     O14      O2L     -0.780000       15.9994           0
     23341 MEMB     188      PYPG     O11      OSLP    -0.570000       15.9994           0
     23342 MEMB     188      PYPG     O12      OSLP    -0.570000       15.9994           0
     23343 MEMB     188      PYPG     C1       CTL2    -0.800000E-01   12.0110           0
     23344 MEMB     188      PYPG     HA       HAL2     0.900000E-01   1.00800           0
     23345 MEMB     188      PYPG     HB       HAL2     0.900000E-01   1.00800           0
     23346 MEMB     188      PYPG     C2       CTL1     0.170000       12.0110           0
     23347 MEMB     188      PYPG     HS       HAL1     0.900000E-01   1.00800           0
     23348 MEMB     188      PYPG     O21      OSL     -0.490000       15.9994           0
     23349 MEMB     188      PYPG     C21      CL       0.900000       12.0110           0
     23350 MEMB     188      PYPG     O22      OBL     -0.630000       15.9994           0
     23351 MEMB     188      PYPG     C22      CTL2    -0.220000       12.0110           0
     23352 MEMB     188      PYPG     H2R      HAL2     0.900000E-01   1.00800           0
     23353 MEMB     188      PYPG     H2S      HAL2     0.900000E-01   1.00800           0
     23354 MEMB     188      PYPG     C3       CTL2     0.800000E-01   12.0110           0
     23355 MEMB     188      PYPG     HX       HAL2     0.900000E-01   1.00800           0
     23356 MEMB     188      PYPG     HY       HAL2     0.900000E-01   1.00800           0
     23357 MEMB     188      PYPG     O31      OSL     -0.490000       15.9994           0
     23358 MEMB     188      PYPG     C31      CL       0.900000       12.0110           0
     23359 MEMB     188      PYPG     O32      OBL     -0.630000       15.9994           0
     23360 MEMB     188      PYPG     C32      CTL2    -0.220000       12.0110           0
     23361 MEMB     188      PYPG     H2X      HAL2     0.900000E-01   1.00800           0
     23362 MEMB     188      PYPG     H2Y      HAL2     0.900000E-01   1.00800           0
     23363 MEMB     188      PYPG     C23      CTL2    -0.180000       12.0110           0
     23364 MEMB     188      PYPG     H3R      HAL2     0.900000E-01   1.00800           0
     23365 MEMB     188      PYPG     H3S      HAL2     0.900000E-01   1.00800           0
     23366 MEMB     188      PYPG     C24      CTL2    -0.180000       12.0110           0
     23367 MEMB     188      PYPG     H4R      HAL2     0.900000E-01   1.00800           0
     23368 MEMB     188      PYPG     H4S      HAL2     0.900000E-01   1.00800           0
     23369 MEMB     188      PYPG     C25      CTL2    -0.180000       12.0110           0
     23370 MEMB     188      PYPG     H5R      HAL2     0.900000E-01   1.00800           0
     23371 MEMB     188      PYPG     H5S      HAL2     0.900000E-01   1.00800           0
     23372 MEMB     188      PYPG     C26      CTL2    -0.180000       12.0110           0
     23373 MEMB     188      PYPG     H6R      HAL2     0.900000E-01   1.00800           0
     23374 MEMB     188      PYPG     H6S      HAL2     0.900000E-01   1.00800           0
     23375 MEMB     188      PYPG     C27      CTL2    -0.180000       12.0110           0
     23376 MEMB     188      PYPG     H7R      HAL2     0.900000E-01   1.00800           0
     23377 MEMB     188      PYPG     H7S      HAL2     0.900000E-01   1.00800           0
     23378 MEMB     188      PYPG     C28      CTL2    -0.180000       12.0110           0
     23379 MEMB     188      PYPG     H8R      HAL2     0.900000E-01   1.00800           0
     23380 MEMB     188      PYPG     H8S      HAL2     0.900000E-01   1.00800           0
     23381 MEMB     188      PYPG     C29      CEL1    -0.150000       12.0110           0
     23382 MEMB     188      PYPG     H9R      HEL1     0.150000       1.00800           0
     23383 MEMB     188      PYPG     C210     CEL1    -0.150000       12.0110           0
     23384 MEMB     188      PYPG     H10R     HEL1     0.150000       1.00800           0
     23385 MEMB     188      PYPG     C211     CTL2    -0.180000       12.0110           0
     23386 MEMB     188      PYPG     H11R     HAL2     0.900000E-01   1.00800           0
     23387 MEMB     188      PYPG     H11S     HAL2     0.900000E-01   1.00800           0
     23388 MEMB     188      PYPG     C212     CTL2    -0.180000       12.0110           0
     23389 MEMB     188      PYPG     H12R     HAL2     0.900000E-01   1.00800           0
     23390 MEMB     188      PYPG     H12S     HAL2     0.900000E-01   1.00800           0
     23391 MEMB     188      PYPG     C213     CTL2    -0.180000       12.0110           0
     23392 MEMB     188      PYPG     H13R     HAL2     0.900000E-01   1.00800           0
     23393 MEMB     188      PYPG     H13S     HAL2     0.900000E-01   1.00800           0
     23394 MEMB     188      PYPG     C214     CTL2    -0.180000       12.0110           0
     23395 MEMB     188      PYPG     H14R     HAL2     0.900000E-01   1.00800           0
     23396 MEMB     188      PYPG     H14S     HAL2     0.900000E-01   1.00800           0
     23397 MEMB     188      PYPG     C215     CTL2    -0.180000       12.0110           0
     23398 MEMB     188      PYPG     H15R     HAL2     0.900000E-01   1.00800           0
     23399 MEMB     188      PYPG     H15S     HAL2     0.900000E-01   1.00800           0
     23400 MEMB     188      PYPG     C216     CTL3    -0.270000       12.0110           0
     23401 MEMB     188      PYPG     H16R     HAL3     0.900000E-01   1.00800           0
     23402 MEMB     188      PYPG     H16S     HAL3     0.900000E-01   1.00800           0
     23403 MEMB     188      PYPG     H16T     HAL3     0.900000E-01   1.00800           0
     23404 MEMB     188      PYPG     C33      CTL2    -0.180000       12.0110           0
     23405 MEMB     188      PYPG     H3X      HAL2     0.900000E-01   1.00800           0
     23406 MEMB     188      PYPG     H3Y      HAL2     0.900000E-01   1.00800           0
     23407 MEMB     188      PYPG     C34      CTL2    -0.180000       12.0110           0
     23408 MEMB     188      PYPG     H4X      HAL2     0.900000E-01   1.00800           0
     23409 MEMB     188      PYPG     H4Y      HAL2     0.900000E-01   1.00800           0
     23410 MEMB     188      PYPG     C35      CTL2    -0.180000       12.0110           0
     23411 MEMB     188      PYPG     H5X      HAL2     0.900000E-01   1.00800           0
     23412 MEMB     188      PYPG     H5Y      HAL2     0.900000E-01   1.00800           0
     23413 MEMB     188      PYPG     C36      CTL2    -0.180000       12.0110           0
     23414 MEMB     188      PYPG     H6X      HAL2     0.900000E-01   1.00800           0
     23415 MEMB     188      PYPG     H6Y      HAL2     0.900000E-01   1.00800           0
     23416 MEMB     188      PYPG     C37      CTL2    -0.180000       12.0110           0
     23417 MEMB     188      PYPG     H7X      HAL2     0.900000E-01   1.00800           0
     23418 MEMB     188      PYPG     H7Y      HAL2     0.900000E-01   1.00800           0
     23419 MEMB     188      PYPG     C38      CTL2    -0.180000       12.0110           0
     23420 MEMB     188      PYPG     H8X      HAL2     0.900000E-01   1.00800           0
     23421 MEMB     188      PYPG     H8Y      HAL2     0.900000E-01   1.00800           0
     23422 MEMB     188      PYPG     C39      CTL2    -0.180000       12.0110           0
     23423 MEMB     188      PYPG     H9X      HAL2     0.900000E-01   1.00800           0
     23424 MEMB     188      PYPG     H9Y      HAL2     0.900000E-01   1.00800           0
     23425 MEMB     188      PYPG     C310     CTL2    -0.180000       12.0110           0
     23426 MEMB     188      PYPG     H10X     HAL2     0.900000E-01   1.00800           0
     23427 MEMB     188      PYPG     H10Y     HAL2     0.900000E-01   1.00800           0
     23428 MEMB     188      PYPG     C311     CTL2    -0.180000       12.0110           0
     23429 MEMB     188      PYPG     H11X     HAL2     0.900000E-01   1.00800           0
     23430 MEMB     188      PYPG     H11Y     HAL2     0.900000E-01   1.00800           0
     23431 MEMB     188      PYPG     C312     CTL2    -0.180000       12.0110           0
     23432 MEMB     188      PYPG     H12X     HAL2     0.900000E-01   1.00800           0
     23433 MEMB     188      PYPG     H12Y     HAL2     0.900000E-01   1.00800           0
     23434 MEMB     188      PYPG     C313     CTL2    -0.180000       12.0110           0
     23435 MEMB     188      PYPG     H13X     HAL2     0.900000E-01   1.00800           0
     23436 MEMB     188      PYPG     H13Y     HAL2     0.900000E-01   1.00800           0
     23437 MEMB     188      PYPG     C314     CTL2    -0.180000       12.0110           0
     23438 MEMB     188      PYPG     H14X     HAL2     0.900000E-01   1.00800           0
     23439 MEMB     188      PYPG     H14Y     HAL2     0.900000E-01   1.00800           0
     23440 MEMB     188      PYPG     C315     CTL2    -0.180000       12.0110           0
     23441 MEMB     188      PYPG     H15X     HAL2     0.900000E-01   1.00800           0
     23442 MEMB     188      PYPG     H15Y     HAL2     0.900000E-01   1.00800           0
     23443 MEMB     188      PYPG     C316     CTL3    -0.270000       12.0110           0
     23444 MEMB     188      PYPG     H16X     HAL3     0.900000E-01   1.00800           0
     23445 MEMB     188      PYPG     H16Y     HAL3     0.900000E-01   1.00800           0
     23446 MEMB     188      PYPG     H16Z     HAL3     0.900000E-01   1.00800           0
     23447 MEMB     189      POPE     N        NH3L    -0.300000       14.0070           0
     23448 MEMB     189      POPE     HN1      HCL      0.330000       1.00800           0
     23449 MEMB     189      POPE     HN2      HCL      0.330000       1.00800           0
     23450 MEMB     189      POPE     HN3      HCL      0.330000       1.00800           0
     23451 MEMB     189      POPE     C12      CTL2     0.130000       12.0110           0
     23452 MEMB     189      POPE     H12A     HAL2     0.900000E-01   1.00800           0
     23453 MEMB     189      POPE     H12B     HAL2     0.900000E-01   1.00800           0
     23454 MEMB     189      POPE     C11      CTL2    -0.800000E-01   12.0110           0
     23455 MEMB     189      POPE     H11A     HAL2     0.900000E-01   1.00800           0
     23456 MEMB     189      POPE     H11B     HAL2     0.900000E-01   1.00800           0
     23457 MEMB     189      POPE     P        PL        1.50000       30.9740           0
     23458 MEMB     189      POPE     O13      O2L     -0.780000       15.9994           0
     23459 MEMB     189      POPE     O14      O2L     -0.780000       15.9994           0
     23460 MEMB     189      POPE     O11      OSLP    -0.570000       15.9994           0
     23461 MEMB     189      POPE     O12      OSLP    -0.570000       15.9994           0
     23462 MEMB     189      POPE     C1       CTL2    -0.800000E-01   12.0110           0
     23463 MEMB     189      POPE     HA       HAL2     0.900000E-01   1.00800           0
     23464 MEMB     189      POPE     HB       HAL2     0.900000E-01   1.00800           0
     23465 MEMB     189      POPE     C2       CTL1     0.170000       12.0110           0
     23466 MEMB     189      POPE     HS       HAL1     0.900000E-01   1.00800           0
     23467 MEMB     189      POPE     O21      OSL     -0.490000       15.9994           0
     23468 MEMB     189      POPE     C21      CL       0.900000       12.0110           0
     23469 MEMB     189      POPE     O22      OBL     -0.630000       15.9994           0
     23470 MEMB     189      POPE     C22      CTL2    -0.220000       12.0110           0
     23471 MEMB     189      POPE     H2R      HAL2     0.900000E-01   1.00800           0
     23472 MEMB     189      POPE     H2S      HAL2     0.900000E-01   1.00800           0
     23473 MEMB     189      POPE     C3       CTL2     0.800000E-01   12.0110           0
     23474 MEMB     189      POPE     HX       HAL2     0.900000E-01   1.00800           0
     23475 MEMB     189      POPE     HY       HAL2     0.900000E-01   1.00800           0
     23476 MEMB     189      POPE     O31      OSL     -0.490000       15.9994           0
     23477 MEMB     189      POPE     C31      CL       0.900000       12.0110           0
     23478 MEMB     189      POPE     O32      OBL     -0.630000       15.9994           0
     23479 MEMB     189      POPE     C32      CTL2    -0.220000       12.0110           0
     23480 MEMB     189      POPE     H2X      HAL2     0.900000E-01   1.00800           0
     23481 MEMB     189      POPE     H2Y      HAL2     0.900000E-01   1.00800           0
     23482 MEMB     189      POPE     C23      CTL2    -0.180000       12.0110           0
     23483 MEMB     189      POPE     H3R      HAL2     0.900000E-01   1.00800           0
     23484 MEMB     189      POPE     H3S      HAL2     0.900000E-01   1.00800           0
     23485 MEMB     189      POPE     C24      CTL2    -0.180000       12.0110           0
     23486 MEMB     189      POPE     H4R      HAL2     0.900000E-01   1.00800           0
     23487 MEMB     189      POPE     H4S      HAL2     0.900000E-01   1.00800           0
     23488 MEMB     189      POPE     C25      CTL2    -0.180000       12.0110           0
     23489 MEMB     189      POPE     H5R      HAL2     0.900000E-01   1.00800           0
     23490 MEMB     189      POPE     H5S      HAL2     0.900000E-01   1.00800           0
     23491 MEMB     189      POPE     C26      CTL2    -0.180000       12.0110           0
     23492 MEMB     189      POPE     H6R      HAL2     0.900000E-01   1.00800           0
     23493 MEMB     189      POPE     H6S      HAL2     0.900000E-01   1.00800           0
     23494 MEMB     189      POPE     C27      CTL2    -0.180000       12.0110           0
     23495 MEMB     189      POPE     H7R      HAL2     0.900000E-01   1.00800           0
     23496 MEMB     189      POPE     H7S      HAL2     0.900000E-01   1.00800           0
     23497 MEMB     189      POPE     C28      CTL2    -0.180000       12.0110           0
     23498 MEMB     189      POPE     H8R      HAL2     0.900000E-01   1.00800           0
     23499 MEMB     189      POPE     H8S      HAL2     0.900000E-01   1.00800           0
     23500 MEMB     189      POPE     C29      CEL1    -0.150000       12.0110           0
     23501 MEMB     189      POPE     H91      HEL1     0.150000       1.00800           0
     23502 MEMB     189      POPE     C210     CEL1    -0.150000       12.0110           0
     23503 MEMB     189      POPE     H101     HEL1     0.150000       1.00800           0
     23504 MEMB     189      POPE     C211     CTL2    -0.180000       12.0110           0
     23505 MEMB     189      POPE     H11R     HAL2     0.900000E-01   1.00800           0
     23506 MEMB     189      POPE     H11S     HAL2     0.900000E-01   1.00800           0
     23507 MEMB     189      POPE     C212     CTL2    -0.180000       12.0110           0
     23508 MEMB     189      POPE     H12R     HAL2     0.900000E-01   1.00800           0
     23509 MEMB     189      POPE     H12S     HAL2     0.900000E-01   1.00800           0
     23510 MEMB     189      POPE     C213     CTL2    -0.180000       12.0110           0
     23511 MEMB     189      POPE     H13R     HAL2     0.900000E-01   1.00800           0
     23512 MEMB     189      POPE     H13S     HAL2     0.900000E-01   1.00800           0
     23513 MEMB     189      POPE     C214     CTL2    -0.180000       12.0110           0
     23514 MEMB     189      POPE     H14R     HAL2     0.900000E-01   1.00800           0
     23515 MEMB     189      POPE     H14S     HAL2     0.900000E-01   1.00800           0
     23516 MEMB     189      POPE     C215     CTL2    -0.180000       12.0110           0
     23517 MEMB     189      POPE     H15R     HAL2     0.900000E-01   1.00800           0
     23518 MEMB     189      POPE     H15S     HAL2     0.900000E-01   1.00800           0
     23519 MEMB     189      POPE     C216     CTL2    -0.180000       12.0110           0
     23520 MEMB     189      POPE     H16R     HAL2     0.900000E-01   1.00800           0
     23521 MEMB     189      POPE     H16S     HAL2     0.900000E-01   1.00800           0
     23522 MEMB     189      POPE     C217     CTL2    -0.180000       12.0110           0
     23523 MEMB     189      POPE     H17R     HAL2     0.900000E-01   1.00800           0
     23524 MEMB     189      POPE     H17S     HAL2     0.900000E-01   1.00800           0
     23525 MEMB     189      POPE     C218     CTL3    -0.270000       12.0110           0
     23526 MEMB     189      POPE     H18R     HAL3     0.900000E-01   1.00800           0
     23527 MEMB     189      POPE     H18S     HAL3     0.900000E-01   1.00800           0
     23528 MEMB     189      POPE     H18T     HAL3     0.900000E-01   1.00800           0
     23529 MEMB     189      POPE     C33      CTL2    -0.180000       12.0110           0
     23530 MEMB     189      POPE     H3X      HAL2     0.900000E-01   1.00800           0
     23531 MEMB     189      POPE     H3Y      HAL2     0.900000E-01   1.00800           0
     23532 MEMB     189      POPE     C34      CTL2    -0.180000       12.0110           0
     23533 MEMB     189      POPE     H4X      HAL2     0.900000E-01   1.00800           0
     23534 MEMB     189      POPE     H4Y      HAL2     0.900000E-01   1.00800           0
     23535 MEMB     189      POPE     C35      CTL2    -0.180000       12.0110           0
     23536 MEMB     189      POPE     H5X      HAL2     0.900000E-01   1.00800           0
     23537 MEMB     189      POPE     H5Y      HAL2     0.900000E-01   1.00800           0
     23538 MEMB     189      POPE     C36      CTL2    -0.180000       12.0110           0
     23539 MEMB     189      POPE     H6X      HAL2     0.900000E-01   1.00800           0
     23540 MEMB     189      POPE     H6Y      HAL2     0.900000E-01   1.00800           0
     23541 MEMB     189      POPE     C37      CTL2    -0.180000       12.0110           0
     23542 MEMB     189      POPE     H7X      HAL2     0.900000E-01   1.00800           0
     23543 MEMB     189      POPE     H7Y      HAL2     0.900000E-01   1.00800           0
     23544 MEMB     189      POPE     C38      CTL2    -0.180000       12.0110           0
     23545 MEMB     189      POPE     H8X      HAL2     0.900000E-01   1.00800           0
     23546 MEMB     189      POPE     H8Y      HAL2     0.900000E-01   1.00800           0
     23547 MEMB     189      POPE     C39      CTL2    -0.180000       12.0110           0
     23548 MEMB     189      POPE     H9X      HAL2     0.900000E-01   1.00800           0
     23549 MEMB     189      POPE     H9Y      HAL2     0.900000E-01   1.00800           0
     23550 MEMB     189      POPE     C310     CTL2    -0.180000       12.0110           0
     23551 MEMB     189      POPE     H10X     HAL2     0.900000E-01   1.00800           0
     23552 MEMB     189      POPE     H10Y     HAL2     0.900000E-01   1.00800           0
     23553 MEMB     189      POPE     C311     CTL2    -0.180000       12.0110           0
     23554 MEMB     189      POPE     H11X     HAL2     0.900000E-01   1.00800           0
     23555 MEMB     189      POPE     H11Y     HAL2     0.900000E-01   1.00800           0
     23556 MEMB     189      POPE     C312     CTL2    -0.180000       12.0110           0
     23557 MEMB     189      POPE     H12X     HAL2     0.900000E-01   1.00800           0
     23558 MEMB     189      POPE     H12Y     HAL2     0.900000E-01   1.00800           0
     23559 MEMB     189      POPE     C313     CTL2    -0.180000       12.0110           0
     23560 MEMB     189      POPE     H13X     HAL2     0.900000E-01   1.00800           0
     23561 MEMB     189      POPE     H13Y     HAL2     0.900000E-01   1.00800           0
     23562 MEMB     189      POPE     C314     CTL2    -0.180000       12.0110           0
     23563 MEMB     189      POPE     H14X     HAL2     0.900000E-01   1.00800           0
     23564 MEMB     189      POPE     H14Y     HAL2     0.900000E-01   1.00800           0
     23565 MEMB     189      POPE     C315     CTL2    -0.180000       12.0110           0
     23566 MEMB     189      POPE     H15X     HAL2     0.900000E-01   1.00800           0
     23567 MEMB     189      POPE     H15Y     HAL2     0.900000E-01   1.00800           0
     23568 MEMB     189      POPE     C316     CTL3    -0.270000       12.0110           0
     23569 MEMB     189      POPE     H16X     HAL3     0.900000E-01   1.00800           0
     23570 MEMB     189      POPE     H16Y     HAL3     0.900000E-01   1.00800           0
     23571 MEMB     189      POPE     H16Z     HAL3     0.900000E-01   1.00800           0
     23572 MEMB     190      PMPE     N        NH3L    -0.300000       14.0070           0
     23573 MEMB     190      PMPE     HN1      HCL      0.330000       1.00800           0
     23574 MEMB     190      PMPE     HN2      HCL      0.330000       1.00800           0
     23575 MEMB     190      PMPE     HN3      HCL      0.330000       1.00800           0
     23576 MEMB     190      PMPE     C12      CTL2     0.130000       12.0110           0
     23577 MEMB     190      PMPE     H12A     HAL2     0.900000E-01   1.00800           0
     23578 MEMB     190      PMPE     H12B     HAL2     0.900000E-01   1.00800           0
     23579 MEMB     190      PMPE     C11      CTL2    -0.800000E-01   12.0110           0
     23580 MEMB     190      PMPE     H11A     HAL2     0.900000E-01   1.00800           0
     23581 MEMB     190      PMPE     H11B     HAL2     0.900000E-01   1.00800           0
     23582 MEMB     190      PMPE     P        PL        1.50000       30.9740           0
     23583 MEMB     190      PMPE     O13      O2L     -0.780000       15.9994           0
     23584 MEMB     190      PMPE     O14      O2L     -0.780000       15.9994           0
     23585 MEMB     190      PMPE     O11      OSLP    -0.570000       15.9994           0
     23586 MEMB     190      PMPE     O12      OSLP    -0.570000       15.9994           0
     23587 MEMB     190      PMPE     C1       CTL2    -0.800000E-01   12.0110           0
     23588 MEMB     190      PMPE     HA       HAL2     0.900000E-01   1.00800           0
     23589 MEMB     190      PMPE     HB       HAL2     0.900000E-01   1.00800           0
     23590 MEMB     190      PMPE     C2       CTL1     0.170000       12.0110           0
     23591 MEMB     190      PMPE     HS       HAL1     0.900000E-01   1.00800           0
     23592 MEMB     190      PMPE     O21      OSL     -0.490000       15.9994           0
     23593 MEMB     190      PMPE     C21      CL       0.900000       12.0110           0
     23594 MEMB     190      PMPE     O22      OBL     -0.630000       15.9994           0
     23595 MEMB     190      PMPE     C22      CTL2    -0.220000       12.0110           0
     23596 MEMB     190      PMPE     H2R      HAL2     0.900000E-01   1.00800           0
     23597 MEMB     190      PMPE     H2S      HAL2     0.900000E-01   1.00800           0
     23598 MEMB     190      PMPE     C3       CTL2     0.800000E-01   12.0110           0
     23599 MEMB     190      PMPE     HX       HAL2     0.900000E-01   1.00800           0
     23600 MEMB     190      PMPE     HY       HAL2     0.900000E-01   1.00800           0
     23601 MEMB     190      PMPE     O31      OSL     -0.490000       15.9994           0
     23602 MEMB     190      PMPE     C31      CL       0.900000       12.0110           0
     23603 MEMB     190      PMPE     O32      OBL     -0.630000       15.9994           0
     23604 MEMB     190      PMPE     C32      CTL2    -0.220000       12.0110           0
     23605 MEMB     190      PMPE     H2X      HAL2     0.900000E-01   1.00800           0
     23606 MEMB     190      PMPE     H2Y      HAL2     0.900000E-01   1.00800           0
     23607 MEMB     190      PMPE     C23      CTL2    -0.180000       12.0110           0
     23608 MEMB     190      PMPE     H3R      HAL2     0.900000E-01   1.00800           0
     23609 MEMB     190      PMPE     H3S      HAL2     0.900000E-01   1.00800           0
     23610 MEMB     190      PMPE     C24      CTL2    -0.180000       12.0110           0
     23611 MEMB     190      PMPE     H4R      HAL2     0.900000E-01   1.00800           0
     23612 MEMB     190      PMPE     H4S      HAL2     0.900000E-01   1.00800           0
     23613 MEMB     190      PMPE     C25      CTL2    -0.180000       12.0110           0
     23614 MEMB     190      PMPE     H5R      HAL2     0.900000E-01   1.00800           0
     23615 MEMB     190      PMPE     H5S      HAL2     0.900000E-01   1.00800           0
     23616 MEMB     190      PMPE     C26      CTL2    -0.180000       12.0110           0
     23617 MEMB     190      PMPE     H6R      HAL2     0.900000E-01   1.00800           0
     23618 MEMB     190      PMPE     H6S      HAL2     0.900000E-01   1.00800           0
     23619 MEMB     190      PMPE     C27      CTL2    -0.180000       12.0110           0
     23620 MEMB     190      PMPE     H7R      HAL2     0.900000E-01   1.00800           0
     23621 MEMB     190      PMPE     H7S      HAL2     0.900000E-01   1.00800           0
     23622 MEMB     190      PMPE     C28      CTL2    -0.180000       12.0110           0
     23623 MEMB     190      PMPE     H8R      HAL2     0.900000E-01   1.00800           0
     23624 MEMB     190      PMPE     H8S      HAL2     0.900000E-01   1.00800           0
     23625 MEMB     190      PMPE     C29      CG3RC1  -0.900000E-01   12.0110           0
     23626 MEMB     190      PMPE     H9R      HGA1     0.900000E-01   1.00800           0
     23627 MEMB     190      PMPE     C217     CG3C31  -0.180000       12.0110           0
     23628 MEMB     190      PMPE     H17R     HGA2     0.900000E-01   1.00800           0
     23629 MEMB     190      PMPE     H17S     HGA2     0.900000E-01   1.00800           0
     23630 MEMB     190      PMPE     C210     CG3RC1  -0.900000E-01   12.0110           0
     23631 MEMB     190      PMPE     H10R     HGA1     0.900000E-01   1.00800           0
     23632 MEMB     190      PMPE     C211     CTL2    -0.180000       12.0110           0
     23633 MEMB     190      PMPE     H11R     HAL2     0.900000E-01   1.00800           0
     23634 MEMB     190      PMPE     H11S     HAL2     0.900000E-01   1.00800           0
     23635 MEMB     190      PMPE     C212     CTL2    -0.180000       12.0110           0
     23636 MEMB     190      PMPE     H12R     HAL2     0.900000E-01   1.00800           0
     23637 MEMB     190      PMPE     H12S     HAL2     0.900000E-01   1.00800           0
     23638 MEMB     190      PMPE     C213     CTL2    -0.180000       12.0110           0
     23639 MEMB     190      PMPE     H13R     HAL2     0.900000E-01   1.00800           0
     23640 MEMB     190      PMPE     H13S     HAL2     0.900000E-01   1.00800           0
     23641 MEMB     190      PMPE     C214     CTL2    -0.180000       12.0110           0
     23642 MEMB     190      PMPE     H14R     HAL2     0.900000E-01   1.00800           0
     23643 MEMB     190      PMPE     H14S     HAL2     0.900000E-01   1.00800           0
     23644 MEMB     190      PMPE     C215     CTL2    -0.180000       12.0110           0
     23645 MEMB     190      PMPE     H15R     HAL2     0.900000E-01   1.00800           0
     23646 MEMB     190      PMPE     H15S     HAL2     0.900000E-01   1.00800           0
     23647 MEMB     190      PMPE     C216     CTL3    -0.270000       12.0110           0
     23648 MEMB     190      PMPE     H16R     HAL3     0.900000E-01   1.00800           0
     23649 MEMB     190      PMPE     H16S     HAL3     0.900000E-01   1.00800           0
     23650 MEMB     190      PMPE     H16T     HAL3     0.900000E-01   1.00800           0
     23651 MEMB     190      PMPE     C33      CTL2    -0.180000       12.0110           0
     23652 MEMB     190      PMPE     H3X      HAL2     0.900000E-01   1.00800           0
     23653 MEMB     190      PMPE     H3Y      HAL2     0.900000E-01   1.00800           0
     23654 MEMB     190      PMPE     C34      CTL2    -0.180000       12.0110           0
     23655 MEMB     190      PMPE     H4X      HAL2     0.900000E-01   1.00800           0
     23656 MEMB     190      PMPE     H4Y      HAL2     0.900000E-01   1.00800           0
     23657 MEMB     190      PMPE     C35      CTL2    -0.180000       12.0110           0
     23658 MEMB     190      PMPE     H5X      HAL2     0.900000E-01   1.00800           0
     23659 MEMB     190      PMPE     H5Y      HAL2     0.900000E-01   1.00800           0
     23660 MEMB     190      PMPE     C36      CTL2    -0.180000       12.0110           0
     23661 MEMB     190      PMPE     H6X      HAL2     0.900000E-01   1.00800           0
     23662 MEMB     190      PMPE     H6Y      HAL2     0.900000E-01   1.00800           0
     23663 MEMB     190      PMPE     C37      CTL2    -0.180000       12.0110           0
     23664 MEMB     190      PMPE     H7X      HAL2     0.900000E-01   1.00800           0
     23665 MEMB     190      PMPE     H7Y      HAL2     0.900000E-01   1.00800           0
     23666 MEMB     190      PMPE     C38      CTL2    -0.180000       12.0110           0
     23667 MEMB     190      PMPE     H8X      HAL2     0.900000E-01   1.00800           0
     23668 MEMB     190      PMPE     H8Y      HAL2     0.900000E-01   1.00800           0
     23669 MEMB     190      PMPE     C39      CTL2    -0.180000       12.0110           0
     23670 MEMB     190      PMPE     H9X      HAL2     0.900000E-01   1.00800           0
     23671 MEMB     190      PMPE     H9Y      HAL2     0.900000E-01   1.00800           0
     23672 MEMB     190      PMPE     C310     CTL2    -0.180000       12.0110           0
     23673 MEMB     190      PMPE     H10X     HAL2     0.900000E-01   1.00800           0
     23674 MEMB     190      PMPE     H10Y     HAL2     0.900000E-01   1.00800           0
     23675 MEMB     190      PMPE     C311     CTL2    -0.180000       12.0110           0
     23676 MEMB     190      PMPE     H11X     HAL2     0.900000E-01   1.00800           0
     23677 MEMB     190      PMPE     H11Y     HAL2     0.900000E-01   1.00800           0
     23678 MEMB     190      PMPE     C312     CTL2    -0.180000       12.0110           0
     23679 MEMB     190      PMPE     H12X     HAL2     0.900000E-01   1.00800           0
     23680 MEMB     190      PMPE     H12Y     HAL2     0.900000E-01   1.00800           0
     23681 MEMB     190      PMPE     C313     CTL2    -0.180000       12.0110           0
     23682 MEMB     190      PMPE     H13X     HAL2     0.900000E-01   1.00800           0
     23683 MEMB     190      PMPE     H13Y     HAL2     0.900000E-01   1.00800           0
     23684 MEMB     190      PMPE     C314     CTL2    -0.180000       12.0110           0
     23685 MEMB     190      PMPE     H14X     HAL2     0.900000E-01   1.00800           0
     23686 MEMB     190      PMPE     H14Y     HAL2     0.900000E-01   1.00800           0
     23687 MEMB     190      PMPE     C315     CTL2    -0.180000       12.0110           0
     23688 MEMB     190      PMPE     H15X     HAL2     0.900000E-01   1.00800           0
     23689 MEMB     190      PMPE     H15Y     HAL2     0.900000E-01   1.00800           0
     23690 MEMB     190      PMPE     C316     CTL3    -0.270000       12.0110           0
     23691 MEMB     190      PMPE     H16X     HAL3     0.900000E-01   1.00800           0
     23692 MEMB     190      PMPE     H16Y     HAL3     0.900000E-01   1.00800           0
     23693 MEMB     190      PMPE     H16Z     HAL3     0.900000E-01   1.00800           0
     23694 MEMB     191      PMPG     C13      CTL2     0.500000E-01   12.0110           0
     23695 MEMB     191      PMPG     H13A     HAL2     0.900000E-01   1.00800           0
     23696 MEMB     191      PMPG     H13B     HAL2     0.900000E-01   1.00800           0
     23697 MEMB     191      PMPG     OC3      OHL     -0.660000       15.9994           0
     23698 MEMB     191      PMPG     HO3      HOL      0.430000       1.00800           0
     23699 MEMB     191      PMPG     C12      CTL1     0.140000       12.0110           0
     23700 MEMB     191      PMPG     H12A     HAL1     0.900000E-01   1.00800           0
     23701 MEMB     191      PMPG     OC2      OHL     -0.660000       15.9994           0
     23702 MEMB     191      PMPG     HO2      HOL      0.430000       1.00800           0
     23703 MEMB     191      PMPG     C11      CTL2    -0.800000E-01   12.0110           0
     23704 MEMB     191      PMPG     H11A     HAL2     0.900000E-01   1.00800           0
     23705 MEMB     191      PMPG     H11B     HAL2     0.900000E-01   1.00800           0
     23706 MEMB     191      PMPG     P        PL        1.50000       30.9740           0
     23707 MEMB     191      PMPG     O13      O2L     -0.780000       15.9994           0
     23708 MEMB     191      PMPG     O14      O2L     -0.780000       15.9994           0
     23709 MEMB     191      PMPG     O11      OSLP    -0.570000       15.9994           0
     23710 MEMB     191      PMPG     O12      OSLP    -0.570000       15.9994           0
     23711 MEMB     191      PMPG     C1       CTL2    -0.800000E-01   12.0110           0
     23712 MEMB     191      PMPG     HA       HAL2     0.900000E-01   1.00800           0
     23713 MEMB     191      PMPG     HB       HAL2     0.900000E-01   1.00800           0
     23714 MEMB     191      PMPG     C2       CTL1     0.170000       12.0110           0
     23715 MEMB     191      PMPG     HS       HAL1     0.900000E-01   1.00800           0
     23716 MEMB     191      PMPG     O21      OSL     -0.490000       15.9994           0
     23717 MEMB     191      PMPG     C21      CL       0.900000       12.0110           0
     23718 MEMB     191      PMPG     O22      OBL     -0.630000       15.9994           0
     23719 MEMB     191      PMPG     C22      CTL2    -0.220000       12.0110           0
     23720 MEMB     191      PMPG     H2R      HAL2     0.900000E-01   1.00800           0
     23721 MEMB     191      PMPG     H2S      HAL2     0.900000E-01   1.00800           0
     23722 MEMB     191      PMPG     C3       CTL2     0.800000E-01   12.0110           0
     23723 MEMB     191      PMPG     HX       HAL2     0.900000E-01   1.00800           0
     23724 MEMB     191      PMPG     HY       HAL2     0.900000E-01   1.00800           0
     23725 MEMB     191      PMPG     O31      OSL     -0.490000       15.9994           0
     23726 MEMB     191      PMPG     C31      CL       0.900000       12.0110           0
     23727 MEMB     191      PMPG     O32      OBL     -0.630000       15.9994           0
     23728 MEMB     191      PMPG     C32      CTL2    -0.220000       12.0110           0
     23729 MEMB     191      PMPG     H2X      HAL2     0.900000E-01   1.00800           0
     23730 MEMB     191      PMPG     H2Y      HAL2     0.900000E-01   1.00800           0
     23731 MEMB     191      PMPG     C23      CTL2    -0.180000       12.0110           0
     23732 MEMB     191      PMPG     H3R      HAL2     0.900000E-01   1.00800           0
     23733 MEMB     191      PMPG     H3S      HAL2     0.900000E-01   1.00800           0
     23734 MEMB     191      PMPG     C24      CTL2    -0.180000       12.0110           0
     23735 MEMB     191      PMPG     H4R      HAL2     0.900000E-01   1.00800           0
     23736 MEMB     191      PMPG     H4S      HAL2     0.900000E-01   1.00800           0
     23737 MEMB     191      PMPG     C25      CTL2    -0.180000       12.0110           0
     23738 MEMB     191      PMPG     H5R      HAL2     0.900000E-01   1.00800           0
     23739 MEMB     191      PMPG     H5S      HAL2     0.900000E-01   1.00800           0
     23740 MEMB     191      PMPG     C26      CTL2    -0.180000       12.0110           0
     23741 MEMB     191      PMPG     H6R      HAL2     0.900000E-01   1.00800           0
     23742 MEMB     191      PMPG     H6S      HAL2     0.900000E-01   1.00800           0
     23743 MEMB     191      PMPG     C27      CTL2    -0.180000       12.0110           0
     23744 MEMB     191      PMPG     H7R      HAL2     0.900000E-01   1.00800           0
     23745 MEMB     191      PMPG     H7S      HAL2     0.900000E-01   1.00800           0
     23746 MEMB     191      PMPG     C28      CTL2    -0.180000       12.0110           0
     23747 MEMB     191      PMPG     H8R      HAL2     0.900000E-01   1.00800           0
     23748 MEMB     191      PMPG     H8S      HAL2     0.900000E-01   1.00800           0
     23749 MEMB     191      PMPG     C29      CG3RC1  -0.900000E-01   12.0110           0
     23750 MEMB     191      PMPG     H9R      HGA1     0.900000E-01   1.00800           0
     23751 MEMB     191      PMPG     C217     CG3C31  -0.180000       12.0110           0
     23752 MEMB     191      PMPG     H17R     HGA2     0.900000E-01   1.00800           0
     23753 MEMB     191      PMPG     H17S     HGA2     0.900000E-01   1.00800           0
     23754 MEMB     191      PMPG     C210     CG3RC1  -0.900000E-01   12.0110           0
     23755 MEMB     191      PMPG     H10R     HGA1     0.900000E-01   1.00800           0
     23756 MEMB     191      PMPG     C211     CTL2    -0.180000       12.0110           0
     23757 MEMB     191      PMPG     H11R     HAL2     0.900000E-01   1.00800           0
     23758 MEMB     191      PMPG     H11S     HAL2     0.900000E-01   1.00800           0
     23759 MEMB     191      PMPG     C212     CTL2    -0.180000       12.0110           0
     23760 MEMB     191      PMPG     H12R     HAL2     0.900000E-01   1.00800           0
     23761 MEMB     191      PMPG     H12S     HAL2     0.900000E-01   1.00800           0
     23762 MEMB     191      PMPG     C213     CTL2    -0.180000       12.0110           0
     23763 MEMB     191      PMPG     H13R     HAL2     0.900000E-01   1.00800           0
     23764 MEMB     191      PMPG     H13S     HAL2     0.900000E-01   1.00800           0
     23765 MEMB     191      PMPG     C214     CTL2    -0.180000       12.0110           0
     23766 MEMB     191      PMPG     H14R     HAL2     0.900000E-01   1.00800           0
     23767 MEMB     191      PMPG     H14S     HAL2     0.900000E-01   1.00800           0
     23768 MEMB     191      PMPG     C215     CTL2    -0.180000       12.0110           0
     23769 MEMB     191      PMPG     H15R     HAL2     0.900000E-01   1.00800           0
     23770 MEMB     191      PMPG     H15S     HAL2     0.900000E-01   1.00800           0
     23771 MEMB     191      PMPG     C216     CTL3    -0.270000       12.0110           0
     23772 MEMB     191      PMPG     H16R     HAL3     0.900000E-01   1.00800           0
     23773 MEMB     191      PMPG     H16S     HAL3     0.900000E-01   1.00800           0
     23774 MEMB     191      PMPG     H16T     HAL3     0.900000E-01   1.00800           0
     23775 MEMB     191      PMPG     C33      CTL2    -0.180000       12.0110           0
     23776 MEMB     191      PMPG     H3X      HAL2     0.900000E-01   1.00800           0
     23777 MEMB     191      PMPG     H3Y      HAL2     0.900000E-01   1.00800           0
     23778 MEMB     191      PMPG     C34      CTL2    -0.180000       12.0110           0
     23779 MEMB     191      PMPG     H4X      HAL2     0.900000E-01   1.00800           0
     23780 MEMB     191      PMPG     H4Y      HAL2     0.900000E-01   1.00800           0
     23781 MEMB     191      PMPG     C35      CTL2    -0.180000       12.0110           0
     23782 MEMB     191      PMPG     H5X      HAL2     0.900000E-01   1.00800           0
     23783 MEMB     191      PMPG     H5Y      HAL2     0.900000E-01   1.00800           0
     23784 MEMB     191      PMPG     C36      CTL2    -0.180000       12.0110           0
     23785 MEMB     191      PMPG     H6X      HAL2     0.900000E-01   1.00800           0
     23786 MEMB     191      PMPG     H6Y      HAL2     0.900000E-01   1.00800           0
     23787 MEMB     191      PMPG     C37      CTL2    -0.180000       12.0110           0
     23788 MEMB     191      PMPG     H7X      HAL2     0.900000E-01   1.00800           0
     23789 MEMB     191      PMPG     H7Y      HAL2     0.900000E-01   1.00800           0
     23790 MEMB     191      PMPG     C38      CTL2    -0.180000       12.0110           0
     23791 MEMB     191      PMPG     H8X      HAL2     0.900000E-01   1.00800           0
     23792 MEMB     191      PMPG     H8Y      HAL2     0.900000E-01   1.00800           0
     23793 MEMB     191      PMPG     C39      CTL2    -0.180000       12.0110           0
     23794 MEMB     191      PMPG     H9X      HAL2     0.900000E-01   1.00800           0
     23795 MEMB     191      PMPG     H9Y      HAL2     0.900000E-01   1.00800           0
     23796 MEMB     191      PMPG     C310     CTL2    -0.180000       12.0110           0
     23797 MEMB     191      PMPG     H10X     HAL2     0.900000E-01   1.00800           0
     23798 MEMB     191      PMPG     H10Y     HAL2     0.900000E-01   1.00800           0
     23799 MEMB     191      PMPG     C311     CTL2    -0.180000       12.0110           0
     23800 MEMB     191      PMPG     H11X     HAL2     0.900000E-01   1.00800           0
     23801 MEMB     191      PMPG     H11Y     HAL2     0.900000E-01   1.00800           0
     23802 MEMB     191      PMPG     C312     CTL2    -0.180000       12.0110           0
     23803 MEMB     191      PMPG     H12X     HAL2     0.900000E-01   1.00800           0
     23804 MEMB     191      PMPG     H12Y     HAL2     0.900000E-01   1.00800           0
     23805 MEMB     191      PMPG     C313     CTL2    -0.180000       12.0110           0
     23806 MEMB     191      PMPG     H13X     HAL2     0.900000E-01   1.00800           0
     23807 MEMB     191      PMPG     H13Y     HAL2     0.900000E-01   1.00800           0
     23808 MEMB     191      PMPG     C314     CTL2    -0.180000       12.0110           0
     23809 MEMB     191      PMPG     H14X     HAL2     0.900000E-01   1.00800           0
     23810 MEMB     191      PMPG     H14Y     HAL2     0.900000E-01   1.00800           0
     23811 MEMB     191      PMPG     C315     CTL2    -0.180000       12.0110           0
     23812 MEMB     191      PMPG     H15X     HAL2     0.900000E-01   1.00800           0
     23813 MEMB     191      PMPG     H15Y     HAL2     0.900000E-01   1.00800           0
     23814 MEMB     191      PMPG     C316     CTL3    -0.270000       12.0110           0
     23815 MEMB     191      PMPG     H16X     HAL3     0.900000E-01   1.00800           0
     23816 MEMB     191      PMPG     H16Y     HAL3     0.900000E-01   1.00800           0
     23817 MEMB     191      PMPG     H16Z     HAL3     0.900000E-01   1.00800           0
     23818 MEMB     192      PMPG     C13      CTL2     0.500000E-01   12.0110           0
     23819 MEMB     192      PMPG     H13A     HAL2     0.900000E-01   1.00800           0
     23820 MEMB     192      PMPG     H13B     HAL2     0.900000E-01   1.00800           0
     23821 MEMB     192      PMPG     OC3      OHL     -0.660000       15.9994           0
     23822 MEMB     192      PMPG     HO3      HOL      0.430000       1.00800           0
     23823 MEMB     192      PMPG     C12      CTL1     0.140000       12.0110           0
     23824 MEMB     192      PMPG     H12A     HAL1     0.900000E-01   1.00800           0
     23825 MEMB     192      PMPG     OC2      OHL     -0.660000       15.9994           0
     23826 MEMB     192      PMPG     HO2      HOL      0.430000       1.00800           0
     23827 MEMB     192      PMPG     C11      CTL2    -0.800000E-01   12.0110           0
     23828 MEMB     192      PMPG     H11A     HAL2     0.900000E-01   1.00800           0
     23829 MEMB     192      PMPG     H11B     HAL2     0.900000E-01   1.00800           0
     23830 MEMB     192      PMPG     P        PL        1.50000       30.9740           0
     23831 MEMB     192      PMPG     O13      O2L     -0.780000       15.9994           0
     23832 MEMB     192      PMPG     O14      O2L     -0.780000       15.9994           0
     23833 MEMB     192      PMPG     O11      OSLP    -0.570000       15.9994           0
     23834 MEMB     192      PMPG     O12      OSLP    -0.570000       15.9994           0
     23835 MEMB     192      PMPG     C1       CTL2    -0.800000E-01   12.0110           0
     23836 MEMB     192      PMPG     HA       HAL2     0.900000E-01   1.00800           0
     23837 MEMB     192      PMPG     HB       HAL2     0.900000E-01   1.00800           0
     23838 MEMB     192      PMPG     C2       CTL1     0.170000       12.0110           0
     23839 MEMB     192      PMPG     HS       HAL1     0.900000E-01   1.00800           0
     23840 MEMB     192      PMPG     O21      OSL     -0.490000       15.9994           0
     23841 MEMB     192      PMPG     C21      CL       0.900000       12.0110           0
     23842 MEMB     192      PMPG     O22      OBL     -0.630000       15.9994           0
     23843 MEMB     192      PMPG     C22      CTL2    -0.220000       12.0110           0
     23844 MEMB     192      PMPG     H2R      HAL2     0.900000E-01   1.00800           0
     23845 MEMB     192      PMPG     H2S      HAL2     0.900000E-01   1.00800           0
     23846 MEMB     192      PMPG     C3       CTL2     0.800000E-01   12.0110           0
     23847 MEMB     192      PMPG     HX       HAL2     0.900000E-01   1.00800           0
     23848 MEMB     192      PMPG     HY       HAL2     0.900000E-01   1.00800           0
     23849 MEMB     192      PMPG     O31      OSL     -0.490000       15.9994           0
     23850 MEMB     192      PMPG     C31      CL       0.900000       12.0110           0
     23851 MEMB     192      PMPG     O32      OBL     -0.630000       15.9994           0
     23852 MEMB     192      PMPG     C32      CTL2    -0.220000       12.0110           0
     23853 MEMB     192      PMPG     H2X      HAL2     0.900000E-01   1.00800           0
     23854 MEMB     192      PMPG     H2Y      HAL2     0.900000E-01   1.00800           0
     23855 MEMB     192      PMPG     C23      CTL2    -0.180000       12.0110           0
     23856 MEMB     192      PMPG     H3R      HAL2     0.900000E-01   1.00800           0
     23857 MEMB     192      PMPG     H3S      HAL2     0.900000E-01   1.00800           0
     23858 MEMB     192      PMPG     C24      CTL2    -0.180000       12.0110           0
     23859 MEMB     192      PMPG     H4R      HAL2     0.900000E-01   1.00800           0
     23860 MEMB     192      PMPG     H4S      HAL2     0.900000E-01   1.00800           0
     23861 MEMB     192      PMPG     C25      CTL2    -0.180000       12.0110           0
     23862 MEMB     192      PMPG     H5R      HAL2     0.900000E-01   1.00800           0
     23863 MEMB     192      PMPG     H5S      HAL2     0.900000E-01   1.00800           0
     23864 MEMB     192      PMPG     C26      CTL2    -0.180000       12.0110           0
     23865 MEMB     192      PMPG     H6R      HAL2     0.900000E-01   1.00800           0
     23866 MEMB     192      PMPG     H6S      HAL2     0.900000E-01   1.00800           0
     23867 MEMB     192      PMPG     C27      CTL2    -0.180000       12.0110           0
     23868 MEMB     192      PMPG     H7R      HAL2     0.900000E-01   1.00800           0
     23869 MEMB     192      PMPG     H7S      HAL2     0.900000E-01   1.00800           0
     23870 MEMB     192      PMPG     C28      CTL2    -0.180000       12.0110           0
     23871 MEMB     192      PMPG     H8R      HAL2     0.900000E-01   1.00800           0
     23872 MEMB     192      PMPG     H8S      HAL2     0.900000E-01   1.00800           0
     23873 MEMB     192      PMPG     C29      CG3RC1  -0.900000E-01   12.0110           0
     23874 MEMB     192      PMPG     H9R      HGA1     0.900000E-01   1.00800           0
     23875 MEMB     192      PMPG     C217     CG3C31  -0.180000       12.0110           0
     23876 MEMB     192      PMPG     H17R     HGA2     0.900000E-01   1.00800           0
     23877 MEMB     192      PMPG     H17S     HGA2     0.900000E-01   1.00800           0
     23878 MEMB     192      PMPG     C210     CG3RC1  -0.900000E-01   12.0110           0
     23879 MEMB     192      PMPG     H10R     HGA1     0.900000E-01   1.00800           0
     23880 MEMB     192      PMPG     C211     CTL2    -0.180000       12.0110           0
     23881 MEMB     192      PMPG     H11R     HAL2     0.900000E-01   1.00800           0
     23882 MEMB     192      PMPG     H11S     HAL2     0.900000E-01   1.00800           0
     23883 MEMB     192      PMPG     C212     CTL2    -0.180000       12.0110           0
     23884 MEMB     192      PMPG     H12R     HAL2     0.900000E-01   1.00800           0
     23885 MEMB     192      PMPG     H12S     HAL2     0.900000E-01   1.00800           0
     23886 MEMB     192      PMPG     C213     CTL2    -0.180000       12.0110           0
     23887 MEMB     192      PMPG     H13R     HAL2     0.900000E-01   1.00800           0
     23888 MEMB     192      PMPG     H13S     HAL2     0.900000E-01   1.00800           0
     23889 MEMB     192      PMPG     C214     CTL2    -0.180000       12.0110           0
     23890 MEMB     192      PMPG     H14R     HAL2     0.900000E-01   1.00800           0
     23891 MEMB     192      PMPG     H14S     HAL2     0.900000E-01   1.00800           0
     23892 MEMB     192      PMPG     C215     CTL2    -0.180000       12.0110           0
     23893 MEMB     192      PMPG     H15R     HAL2     0.900000E-01   1.00800           0
     23894 MEMB     192      PMPG     H15S     HAL2     0.900000E-01   1.00800           0
     23895 MEMB     192      PMPG     C216     CTL3    -0.270000       12.0110           0
     23896 MEMB     192      PMPG     H16R     HAL3     0.900000E-01   1.00800           0
     23897 MEMB     192      PMPG     H16S     HAL3     0.900000E-01   1.00800           0
     23898 MEMB     192      PMPG     H16T     HAL3     0.900000E-01   1.00800           0
     23899 MEMB     192      PMPG     C33      CTL2    -0.180000       12.0110           0
     23900 MEMB     192      PMPG     H3X      HAL2     0.900000E-01   1.00800           0
     23901 MEMB     192      PMPG     H3Y      HAL2     0.900000E-01   1.00800           0
     23902 MEMB     192      PMPG     C34      CTL2    -0.180000       12.0110           0
     23903 MEMB     192      PMPG     H4X      HAL2     0.900000E-01   1.00800           0
     23904 MEMB     192      PMPG     H4Y      HAL2     0.900000E-01   1.00800           0
     23905 MEMB     192      PMPG     C35      CTL2    -0.180000       12.0110           0
     23906 MEMB     192      PMPG     H5X      HAL2     0.900000E-01   1.00800           0
     23907 MEMB     192      PMPG     H5Y      HAL2     0.900000E-01   1.00800           0
     23908 MEMB     192      PMPG     C36      CTL2    -0.180000       12.0110           0
     23909 MEMB     192      PMPG     H6X      HAL2     0.900000E-01   1.00800           0
     23910 MEMB     192      PMPG     H6Y      HAL2     0.900000E-01   1.00800           0
     23911 MEMB     192      PMPG     C37      CTL2    -0.180000       12.0110           0
     23912 MEMB     192      PMPG     H7X      HAL2     0.900000E-01   1.00800           0
     23913 MEMB     192      PMPG     H7Y      HAL2     0.900000E-01   1.00800           0
     23914 MEMB     192      PMPG     C38      CTL2    -0.180000       12.0110           0
     23915 MEMB     192      PMPG     H8X      HAL2     0.900000E-01   1.00800           0
     23916 MEMB     192      PMPG     H8Y      HAL2     0.900000E-01   1.00800           0
     23917 MEMB     192      PMPG     C39      CTL2    -0.180000       12.0110           0
     23918 MEMB     192      PMPG     H9X      HAL2     0.900000E-01   1.00800           0
     23919 MEMB     192      PMPG     H9Y      HAL2     0.900000E-01   1.00800           0
     23920 MEMB     192      PMPG     C310     CTL2    -0.180000       12.0110           0
     23921 MEMB     192      PMPG     H10X     HAL2     0.900000E-01   1.00800           0
     23922 MEMB     192      PMPG     H10Y     HAL2     0.900000E-01   1.00800           0
     23923 MEMB     192      PMPG     C311     CTL2    -0.180000       12.0110           0
     23924 MEMB     192      PMPG     H11X     HAL2     0.900000E-01   1.00800           0
     23925 MEMB     192      PMPG     H11Y     HAL2     0.900000E-01   1.00800           0
     23926 MEMB     192      PMPG     C312     CTL2    -0.180000       12.0110           0
     23927 MEMB     192      PMPG     H12X     HAL2     0.900000E-01   1.00800           0
     23928 MEMB     192      PMPG     H12Y     HAL2     0.900000E-01   1.00800           0
     23929 MEMB     192      PMPG     C313     CTL2    -0.180000       12.0110           0
     23930 MEMB     192      PMPG     H13X     HAL2     0.900000E-01   1.00800           0
     23931 MEMB     192      PMPG     H13Y     HAL2     0.900000E-01   1.00800           0
     23932 MEMB     192      PMPG     C314     CTL2    -0.180000       12.0110           0
     23933 MEMB     192      PMPG     H14X     HAL2     0.900000E-01   1.00800           0
     23934 MEMB     192      PMPG     H14Y     HAL2     0.900000E-01   1.00800           0
     23935 MEMB     192      PMPG     C315     CTL2    -0.180000       12.0110           0
     23936 MEMB     192      PMPG     H15X     HAL2     0.900000E-01   1.00800           0
     23937 MEMB     192      PMPG     H15Y     HAL2     0.900000E-01   1.00800           0
     23938 MEMB     192      PMPG     C316     CTL3    -0.270000       12.0110           0
     23939 MEMB     192      PMPG     H16X     HAL3     0.900000E-01   1.00800           0
     23940 MEMB     192      PMPG     H16Y     HAL3     0.900000E-01   1.00800           0
     23941 MEMB     192      PMPG     H16Z     HAL3     0.900000E-01   1.00800           0
     23942 MEMB     193      PYPG     C13      CTL2     0.500000E-01   12.0110           0
     23943 MEMB     193      PYPG     H13A     HAL2     0.900000E-01   1.00800           0
     23944 MEMB     193      PYPG     H13B     HAL2     0.900000E-01   1.00800           0
     23945 MEMB     193      PYPG     OC3      OHL     -0.660000       15.9994           0
     23946 MEMB     193      PYPG     HO3      HOL      0.430000       1.00800           0
     23947 MEMB     193      PYPG     C12      CTL1     0.140000       12.0110           0
     23948 MEMB     193      PYPG     H12A     HAL1     0.900000E-01   1.00800           0
     23949 MEMB     193      PYPG     OC2      OHL     -0.660000       15.9994           0
     23950 MEMB     193      PYPG     HO2      HOL      0.430000       1.00800           0
     23951 MEMB     193      PYPG     C11      CTL2    -0.800000E-01   12.0110           0
     23952 MEMB     193      PYPG     H11A     HAL2     0.900000E-01   1.00800           0
     23953 MEMB     193      PYPG     H11B     HAL2     0.900000E-01   1.00800           0
     23954 MEMB     193      PYPG     P        PL        1.50000       30.9740           0
     23955 MEMB     193      PYPG     O13      O2L     -0.780000       15.9994           0
     23956 MEMB     193      PYPG     O14      O2L     -0.780000       15.9994           0
     23957 MEMB     193      PYPG     O11      OSLP    -0.570000       15.9994           0
     23958 MEMB     193      PYPG     O12      OSLP    -0.570000       15.9994           0
     23959 MEMB     193      PYPG     C1       CTL2    -0.800000E-01   12.0110           0
     23960 MEMB     193      PYPG     HA       HAL2     0.900000E-01   1.00800           0
     23961 MEMB     193      PYPG     HB       HAL2     0.900000E-01   1.00800           0
     23962 MEMB     193      PYPG     C2       CTL1     0.170000       12.0110           0
     23963 MEMB     193      PYPG     HS       HAL1     0.900000E-01   1.00800           0
     23964 MEMB     193      PYPG     O21      OSL     -0.490000       15.9994           0
     23965 MEMB     193      PYPG     C21      CL       0.900000       12.0110           0
     23966 MEMB     193      PYPG     O22      OBL     -0.630000       15.9994           0
     23967 MEMB     193      PYPG     C22      CTL2    -0.220000       12.0110           0
     23968 MEMB     193      PYPG     H2R      HAL2     0.900000E-01   1.00800           0
     23969 MEMB     193      PYPG     H2S      HAL2     0.900000E-01   1.00800           0
     23970 MEMB     193      PYPG     C3       CTL2     0.800000E-01   12.0110           0
     23971 MEMB     193      PYPG     HX       HAL2     0.900000E-01   1.00800           0
     23972 MEMB     193      PYPG     HY       HAL2     0.900000E-01   1.00800           0
     23973 MEMB     193      PYPG     O31      OSL     -0.490000       15.9994           0
     23974 MEMB     193      PYPG     C31      CL       0.900000       12.0110           0
     23975 MEMB     193      PYPG     O32      OBL     -0.630000       15.9994           0
     23976 MEMB     193      PYPG     C32      CTL2    -0.220000       12.0110           0
     23977 MEMB     193      PYPG     H2X      HAL2     0.900000E-01   1.00800           0
     23978 MEMB     193      PYPG     H2Y      HAL2     0.900000E-01   1.00800           0
     23979 MEMB     193      PYPG     C23      CTL2    -0.180000       12.0110           0
     23980 MEMB     193      PYPG     H3R      HAL2     0.900000E-01   1.00800           0
     23981 MEMB     193      PYPG     H3S      HAL2     0.900000E-01   1.00800           0
     23982 MEMB     193      PYPG     C24      CTL2    -0.180000       12.0110           0
     23983 MEMB     193      PYPG     H4R      HAL2     0.900000E-01   1.00800           0
     23984 MEMB     193      PYPG     H4S      HAL2     0.900000E-01   1.00800           0
     23985 MEMB     193      PYPG     C25      CTL2    -0.180000       12.0110           0
     23986 MEMB     193      PYPG     H5R      HAL2     0.900000E-01   1.00800           0
     23987 MEMB     193      PYPG     H5S      HAL2     0.900000E-01   1.00800           0
     23988 MEMB     193      PYPG     C26      CTL2    -0.180000       12.0110           0
     23989 MEMB     193      PYPG     H6R      HAL2     0.900000E-01   1.00800           0
     23990 MEMB     193      PYPG     H6S      HAL2     0.900000E-01   1.00800           0
     23991 MEMB     193      PYPG     C27      CTL2    -0.180000       12.0110           0
     23992 MEMB     193      PYPG     H7R      HAL2     0.900000E-01   1.00800           0
     23993 MEMB     193      PYPG     H7S      HAL2     0.900000E-01   1.00800           0
     23994 MEMB     193      PYPG     C28      CTL2    -0.180000       12.0110           0
     23995 MEMB     193      PYPG     H8R      HAL2     0.900000E-01   1.00800           0
     23996 MEMB     193      PYPG     H8S      HAL2     0.900000E-01   1.00800           0
     23997 MEMB     193      PYPG     C29      CEL1    -0.150000       12.0110           0
     23998 MEMB     193      PYPG     H9R      HEL1     0.150000       1.00800           0
     23999 MEMB     193      PYPG     C210     CEL1    -0.150000       12.0110           0
     24000 MEMB     193      PYPG     H10R     HEL1     0.150000       1.00800           0
     24001 MEMB     193      PYPG     C211     CTL2    -0.180000       12.0110           0
     24002 MEMB     193      PYPG     H11R     HAL2     0.900000E-01   1.00800           0
     24003 MEMB     193      PYPG     H11S     HAL2     0.900000E-01   1.00800           0
     24004 MEMB     193      PYPG     C212     CTL2    -0.180000       12.0110           0
     24005 MEMB     193      PYPG     H12R     HAL2     0.900000E-01   1.00800           0
     24006 MEMB     193      PYPG     H12S     HAL2     0.900000E-01   1.00800           0
     24007 MEMB     193      PYPG     C213     CTL2    -0.180000       12.0110           0
     24008 MEMB     193      PYPG     H13R     HAL2     0.900000E-01   1.00800           0
     24009 MEMB     193      PYPG     H13S     HAL2     0.900000E-01   1.00800           0
     24010 MEMB     193      PYPG     C214     CTL2    -0.180000       12.0110           0
     24011 MEMB     193      PYPG     H14R     HAL2     0.900000E-01   1.00800           0
     24012 MEMB     193      PYPG     H14S     HAL2     0.900000E-01   1.00800           0
     24013 MEMB     193      PYPG     C215     CTL2    -0.180000       12.0110           0
     24014 MEMB     193      PYPG     H15R     HAL2     0.900000E-01   1.00800           0
     24015 MEMB     193      PYPG     H15S     HAL2     0.900000E-01   1.00800           0
     24016 MEMB     193      PYPG     C216     CTL3    -0.270000       12.0110           0
     24017 MEMB     193      PYPG     H16R     HAL3     0.900000E-01   1.00800           0
     24018 MEMB     193      PYPG     H16S     HAL3     0.900000E-01   1.00800           0
     24019 MEMB     193      PYPG     H16T     HAL3     0.900000E-01   1.00800           0
     24020 MEMB     193      PYPG     C33      CTL2    -0.180000       12.0110           0
     24021 MEMB     193      PYPG     H3X      HAL2     0.900000E-01   1.00800           0
     24022 MEMB     193      PYPG     H3Y      HAL2     0.900000E-01   1.00800           0
     24023 MEMB     193      PYPG     C34      CTL2    -0.180000       12.0110           0
     24024 MEMB     193      PYPG     H4X      HAL2     0.900000E-01   1.00800           0
     24025 MEMB     193      PYPG     H4Y      HAL2     0.900000E-01   1.00800           0
     24026 MEMB     193      PYPG     C35      CTL2    -0.180000       12.0110           0
     24027 MEMB     193      PYPG     H5X      HAL2     0.900000E-01   1.00800           0
     24028 MEMB     193      PYPG     H5Y      HAL2     0.900000E-01   1.00800           0
     24029 MEMB     193      PYPG     C36      CTL2    -0.180000       12.0110           0
     24030 MEMB     193      PYPG     H6X      HAL2     0.900000E-01   1.00800           0
     24031 MEMB     193      PYPG     H6Y      HAL2     0.900000E-01   1.00800           0
     24032 MEMB     193      PYPG     C37      CTL2    -0.180000       12.0110           0
     24033 MEMB     193      PYPG     H7X      HAL2     0.900000E-01   1.00800           0
     24034 MEMB     193      PYPG     H7Y      HAL2     0.900000E-01   1.00800           0
     24035 MEMB     193      PYPG     C38      CTL2    -0.180000       12.0110           0
     24036 MEMB     193      PYPG     H8X      HAL2     0.900000E-01   1.00800           0
     24037 MEMB     193      PYPG     H8Y      HAL2     0.900000E-01   1.00800           0
     24038 MEMB     193      PYPG     C39      CTL2    -0.180000       12.0110           0
     24039 MEMB     193      PYPG     H9X      HAL2     0.900000E-01   1.00800           0
     24040 MEMB     193      PYPG     H9Y      HAL2     0.900000E-01   1.00800           0
     24041 MEMB     193      PYPG     C310     CTL2    -0.180000       12.0110           0
     24042 MEMB     193      PYPG     H10X     HAL2     0.900000E-01   1.00800           0
     24043 MEMB     193      PYPG     H10Y     HAL2     0.900000E-01   1.00800           0
     24044 MEMB     193      PYPG     C311     CTL2    -0.180000       12.0110           0
     24045 MEMB     193      PYPG     H11X     HAL2     0.900000E-01   1.00800           0
     24046 MEMB     193      PYPG     H11Y     HAL2     0.900000E-01   1.00800           0
     24047 MEMB     193      PYPG     C312     CTL2    -0.180000       12.0110           0
     24048 MEMB     193      PYPG     H12X     HAL2     0.900000E-01   1.00800           0
     24049 MEMB     193      PYPG     H12Y     HAL2     0.900000E-01   1.00800           0
     24050 MEMB     193      PYPG     C313     CTL2    -0.180000       12.0110           0
     24051 MEMB     193      PYPG     H13X     HAL2     0.900000E-01   1.00800           0
     24052 MEMB     193      PYPG     H13Y     HAL2     0.900000E-01   1.00800           0
     24053 MEMB     193      PYPG     C314     CTL2    -0.180000       12.0110           0
     24054 MEMB     193      PYPG     H14X     HAL2     0.900000E-01   1.00800           0
     24055 MEMB     193      PYPG     H14Y     HAL2     0.900000E-01   1.00800           0
     24056 MEMB     193      PYPG     C315     CTL2    -0.180000       12.0110           0
     24057 MEMB     193      PYPG     H15X     HAL2     0.900000E-01   1.00800           0
     24058 MEMB     193      PYPG     H15Y     HAL2     0.900000E-01   1.00800           0
     24059 MEMB     193      PYPG     C316     CTL3    -0.270000       12.0110           0
     24060 MEMB     193      PYPG     H16X     HAL3     0.900000E-01   1.00800           0
     24061 MEMB     193      PYPG     H16Y     HAL3     0.900000E-01   1.00800           0
     24062 MEMB     193      PYPG     H16Z     HAL3     0.900000E-01   1.00800           0
     24063 MEMB     194      POPE     N        NH3L    -0.300000       14.0070           0
     24064 MEMB     194      POPE     HN1      HCL      0.330000       1.00800           0
     24065 MEMB     194      POPE     HN2      HCL      0.330000       1.00800           0
     24066 MEMB     194      POPE     HN3      HCL      0.330000       1.00800           0
     24067 MEMB     194      POPE     C12      CTL2     0.130000       12.0110           0
     24068 MEMB     194      POPE     H12A     HAL2     0.900000E-01   1.00800           0
     24069 MEMB     194      POPE     H12B     HAL2     0.900000E-01   1.00800           0
     24070 MEMB     194      POPE     C11      CTL2    -0.800000E-01   12.0110           0
     24071 MEMB     194      POPE     H11A     HAL2     0.900000E-01   1.00800           0
     24072 MEMB     194      POPE     H11B     HAL2     0.900000E-01   1.00800           0
     24073 MEMB     194      POPE     P        PL        1.50000       30.9740           0
     24074 MEMB     194      POPE     O13      O2L     -0.780000       15.9994           0
     24075 MEMB     194      POPE     O14      O2L     -0.780000       15.9994           0
     24076 MEMB     194      POPE     O11      OSLP    -0.570000       15.9994           0
     24077 MEMB     194      POPE     O12      OSLP    -0.570000       15.9994           0
     24078 MEMB     194      POPE     C1       CTL2    -0.800000E-01   12.0110           0
     24079 MEMB     194      POPE     HA       HAL2     0.900000E-01   1.00800           0
     24080 MEMB     194      POPE     HB       HAL2     0.900000E-01   1.00800           0
     24081 MEMB     194      POPE     C2       CTL1     0.170000       12.0110           0
     24082 MEMB     194      POPE     HS       HAL1     0.900000E-01   1.00800           0
     24083 MEMB     194      POPE     O21      OSL     -0.490000       15.9994           0
     24084 MEMB     194      POPE     C21      CL       0.900000       12.0110           0
     24085 MEMB     194      POPE     O22      OBL     -0.630000       15.9994           0
     24086 MEMB     194      POPE     C22      CTL2    -0.220000       12.0110           0
     24087 MEMB     194      POPE     H2R      HAL2     0.900000E-01   1.00800           0
     24088 MEMB     194      POPE     H2S      HAL2     0.900000E-01   1.00800           0
     24089 MEMB     194      POPE     C3       CTL2     0.800000E-01   12.0110           0
     24090 MEMB     194      POPE     HX       HAL2     0.900000E-01   1.00800           0
     24091 MEMB     194      POPE     HY       HAL2     0.900000E-01   1.00800           0
     24092 MEMB     194      POPE     O31      OSL     -0.490000       15.9994           0
     24093 MEMB     194      POPE     C31      CL       0.900000       12.0110           0
     24094 MEMB     194      POPE     O32      OBL     -0.630000       15.9994           0
     24095 MEMB     194      POPE     C32      CTL2    -0.220000       12.0110           0
     24096 MEMB     194      POPE     H2X      HAL2     0.900000E-01   1.00800           0
     24097 MEMB     194      POPE     H2Y      HAL2     0.900000E-01   1.00800           0
     24098 MEMB     194      POPE     C23      CTL2    -0.180000       12.0110           0
     24099 MEMB     194      POPE     H3R      HAL2     0.900000E-01   1.00800           0
     24100 MEMB     194      POPE     H3S      HAL2     0.900000E-01   1.00800           0
     24101 MEMB     194      POPE     C24      CTL2    -0.180000       12.0110           0
     24102 MEMB     194      POPE     H4R      HAL2     0.900000E-01   1.00800           0
     24103 MEMB     194      POPE     H4S      HAL2     0.900000E-01   1.00800           0
     24104 MEMB     194      POPE     C25      CTL2    -0.180000       12.0110           0
     24105 MEMB     194      POPE     H5R      HAL2     0.900000E-01   1.00800           0
     24106 MEMB     194      POPE     H5S      HAL2     0.900000E-01   1.00800           0
     24107 MEMB     194      POPE     C26      CTL2    -0.180000       12.0110           0
     24108 MEMB     194      POPE     H6R      HAL2     0.900000E-01   1.00800           0
     24109 MEMB     194      POPE     H6S      HAL2     0.900000E-01   1.00800           0
     24110 MEMB     194      POPE     C27      CTL2    -0.180000       12.0110           0
     24111 MEMB     194      POPE     H7R      HAL2     0.900000E-01   1.00800           0
     24112 MEMB     194      POPE     H7S      HAL2     0.900000E-01   1.00800           0
     24113 MEMB     194      POPE     C28      CTL2    -0.180000       12.0110           0
     24114 MEMB     194      POPE     H8R      HAL2     0.900000E-01   1.00800           0
     24115 MEMB     194      POPE     H8S      HAL2     0.900000E-01   1.00800           0
     24116 MEMB     194      POPE     C29      CEL1    -0.150000       12.0110           0
     24117 MEMB     194      POPE     H91      HEL1     0.150000       1.00800           0
     24118 MEMB     194      POPE     C210     CEL1    -0.150000       12.0110           0
     24119 MEMB     194      POPE     H101     HEL1     0.150000       1.00800           0
     24120 MEMB     194      POPE     C211     CTL2    -0.180000       12.0110           0
     24121 MEMB     194      POPE     H11R     HAL2     0.900000E-01   1.00800           0
     24122 MEMB     194      POPE     H11S     HAL2     0.900000E-01   1.00800           0
     24123 MEMB     194      POPE     C212     CTL2    -0.180000       12.0110           0
     24124 MEMB     194      POPE     H12R     HAL2     0.900000E-01   1.00800           0
     24125 MEMB     194      POPE     H12S     HAL2     0.900000E-01   1.00800           0
     24126 MEMB     194      POPE     C213     CTL2    -0.180000       12.0110           0
     24127 MEMB     194      POPE     H13R     HAL2     0.900000E-01   1.00800           0
     24128 MEMB     194      POPE     H13S     HAL2     0.900000E-01   1.00800           0
     24129 MEMB     194      POPE     C214     CTL2    -0.180000       12.0110           0
     24130 MEMB     194      POPE     H14R     HAL2     0.900000E-01   1.00800           0
     24131 MEMB     194      POPE     H14S     HAL2     0.900000E-01   1.00800           0
     24132 MEMB     194      POPE     C215     CTL2    -0.180000       12.0110           0
     24133 MEMB     194      POPE     H15R     HAL2     0.900000E-01   1.00800           0
     24134 MEMB     194      POPE     H15S     HAL2     0.900000E-01   1.00800           0
     24135 MEMB     194      POPE     C216     CTL2    -0.180000       12.0110           0
     24136 MEMB     194      POPE     H16R     HAL2     0.900000E-01   1.00800           0
     24137 MEMB     194      POPE     H16S     HAL2     0.900000E-01   1.00800           0
     24138 MEMB     194      POPE     C217     CTL2    -0.180000       12.0110           0
     24139 MEMB     194      POPE     H17R     HAL2     0.900000E-01   1.00800           0
     24140 MEMB     194      POPE     H17S     HAL2     0.900000E-01   1.00800           0
     24141 MEMB     194      POPE     C218     CTL3    -0.270000       12.0110           0
     24142 MEMB     194      POPE     H18R     HAL3     0.900000E-01   1.00800           0
     24143 MEMB     194      POPE     H18S     HAL3     0.900000E-01   1.00800           0
     24144 MEMB     194      POPE     H18T     HAL3     0.900000E-01   1.00800           0
     24145 MEMB     194      POPE     C33      CTL2    -0.180000       12.0110           0
     24146 MEMB     194      POPE     H3X      HAL2     0.900000E-01   1.00800           0
     24147 MEMB     194      POPE     H3Y      HAL2     0.900000E-01   1.00800           0
     24148 MEMB     194      POPE     C34      CTL2    -0.180000       12.0110           0
     24149 MEMB     194      POPE     H4X      HAL2     0.900000E-01   1.00800           0
     24150 MEMB     194      POPE     H4Y      HAL2     0.900000E-01   1.00800           0
     24151 MEMB     194      POPE     C35      CTL2    -0.180000       12.0110           0
     24152 MEMB     194      POPE     H5X      HAL2     0.900000E-01   1.00800           0
     24153 MEMB     194      POPE     H5Y      HAL2     0.900000E-01   1.00800           0
     24154 MEMB     194      POPE     C36      CTL2    -0.180000       12.0110           0
     24155 MEMB     194      POPE     H6X      HAL2     0.900000E-01   1.00800           0
     24156 MEMB     194      POPE     H6Y      HAL2     0.900000E-01   1.00800           0
     24157 MEMB     194      POPE     C37      CTL2    -0.180000       12.0110           0
     24158 MEMB     194      POPE     H7X      HAL2     0.900000E-01   1.00800           0
     24159 MEMB     194      POPE     H7Y      HAL2     0.900000E-01   1.00800           0
     24160 MEMB     194      POPE     C38      CTL2    -0.180000       12.0110           0
     24161 MEMB     194      POPE     H8X      HAL2     0.900000E-01   1.00800           0
     24162 MEMB     194      POPE     H8Y      HAL2     0.900000E-01   1.00800           0
     24163 MEMB     194      POPE     C39      CTL2    -0.180000       12.0110           0
     24164 MEMB     194      POPE     H9X      HAL2     0.900000E-01   1.00800           0
     24165 MEMB     194      POPE     H9Y      HAL2     0.900000E-01   1.00800           0
     24166 MEMB     194      POPE     C310     CTL2    -0.180000       12.0110           0
     24167 MEMB     194      POPE     H10X     HAL2     0.900000E-01   1.00800           0
     24168 MEMB     194      POPE     H10Y     HAL2     0.900000E-01   1.00800           0
     24169 MEMB     194      POPE     C311     CTL2    -0.180000       12.0110           0
     24170 MEMB     194      POPE     H11X     HAL2     0.900000E-01   1.00800           0
     24171 MEMB     194      POPE     H11Y     HAL2     0.900000E-01   1.00800           0
     24172 MEMB     194      POPE     C312     CTL2    -0.180000       12.0110           0
     24173 MEMB     194      POPE     H12X     HAL2     0.900000E-01   1.00800           0
     24174 MEMB     194      POPE     H12Y     HAL2     0.900000E-01   1.00800           0
     24175 MEMB     194      POPE     C313     CTL2    -0.180000       12.0110           0
     24176 MEMB     194      POPE     H13X     HAL2     0.900000E-01   1.00800           0
     24177 MEMB     194      POPE     H13Y     HAL2     0.900000E-01   1.00800           0
     24178 MEMB     194      POPE     C314     CTL2    -0.180000       12.0110           0
     24179 MEMB     194      POPE     H14X     HAL2     0.900000E-01   1.00800           0
     24180 MEMB     194      POPE     H14Y     HAL2     0.900000E-01   1.00800           0
     24181 MEMB     194      POPE     C315     CTL2    -0.180000       12.0110           0
     24182 MEMB     194      POPE     H15X     HAL2     0.900000E-01   1.00800           0
     24183 MEMB     194      POPE     H15Y     HAL2     0.900000E-01   1.00800           0
     24184 MEMB     194      POPE     C316     CTL3    -0.270000       12.0110           0
     24185 MEMB     194      POPE     H16X     HAL3     0.900000E-01   1.00800           0
     24186 MEMB     194      POPE     H16Y     HAL3     0.900000E-01   1.00800           0
     24187 MEMB     194      POPE     H16Z     HAL3     0.900000E-01   1.00800           0
     24188 MEMB     195      PMPE     N        NH3L    -0.300000       14.0070           0
     24189 MEMB     195      PMPE     HN1      HCL      0.330000       1.00800           0
     24190 MEMB     195      PMPE     HN2      HCL      0.330000       1.00800           0
     24191 MEMB     195      PMPE     HN3      HCL      0.330000       1.00800           0
     24192 MEMB     195      PMPE     C12      CTL2     0.130000       12.0110           0
     24193 MEMB     195      PMPE     H12A     HAL2     0.900000E-01   1.00800           0
     24194 MEMB     195      PMPE     H12B     HAL2     0.900000E-01   1.00800           0
     24195 MEMB     195      PMPE     C11      CTL2    -0.800000E-01   12.0110           0
     24196 MEMB     195      PMPE     H11A     HAL2     0.900000E-01   1.00800           0
     24197 MEMB     195      PMPE     H11B     HAL2     0.900000E-01   1.00800           0
     24198 MEMB     195      PMPE     P        PL        1.50000       30.9740           0
     24199 MEMB     195      PMPE     O13      O2L     -0.780000       15.9994           0
     24200 MEMB     195      PMPE     O14      O2L     -0.780000       15.9994           0
     24201 MEMB     195      PMPE     O11      OSLP    -0.570000       15.9994           0
     24202 MEMB     195      PMPE     O12      OSLP    -0.570000       15.9994           0
     24203 MEMB     195      PMPE     C1       CTL2    -0.800000E-01   12.0110           0
     24204 MEMB     195      PMPE     HA       HAL2     0.900000E-01   1.00800           0
     24205 MEMB     195      PMPE     HB       HAL2     0.900000E-01   1.00800           0
     24206 MEMB     195      PMPE     C2       CTL1     0.170000       12.0110           0
     24207 MEMB     195      PMPE     HS       HAL1     0.900000E-01   1.00800           0
     24208 MEMB     195      PMPE     O21      OSL     -0.490000       15.9994           0
     24209 MEMB     195      PMPE     C21      CL       0.900000       12.0110           0
     24210 MEMB     195      PMPE     O22      OBL     -0.630000       15.9994           0
     24211 MEMB     195      PMPE     C22      CTL2    -0.220000       12.0110           0
     24212 MEMB     195      PMPE     H2R      HAL2     0.900000E-01   1.00800           0
     24213 MEMB     195      PMPE     H2S      HAL2     0.900000E-01   1.00800           0
     24214 MEMB     195      PMPE     C3       CTL2     0.800000E-01   12.0110           0
     24215 MEMB     195      PMPE     HX       HAL2     0.900000E-01   1.00800           0
     24216 MEMB     195      PMPE     HY       HAL2     0.900000E-01   1.00800           0
     24217 MEMB     195      PMPE     O31      OSL     -0.490000       15.9994           0
     24218 MEMB     195      PMPE     C31      CL       0.900000       12.0110           0
     24219 MEMB     195      PMPE     O32      OBL     -0.630000       15.9994           0
     24220 MEMB     195      PMPE     C32      CTL2    -0.220000       12.0110           0
     24221 MEMB     195      PMPE     H2X      HAL2     0.900000E-01   1.00800           0
     24222 MEMB     195      PMPE     H2Y      HAL2     0.900000E-01   1.00800           0
     24223 MEMB     195      PMPE     C23      CTL2    -0.180000       12.0110           0
     24224 MEMB     195      PMPE     H3R      HAL2     0.900000E-01   1.00800           0
     24225 MEMB     195      PMPE     H3S      HAL2     0.900000E-01   1.00800           0
     24226 MEMB     195      PMPE     C24      CTL2    -0.180000       12.0110           0
     24227 MEMB     195      PMPE     H4R      HAL2     0.900000E-01   1.00800           0
     24228 MEMB     195      PMPE     H4S      HAL2     0.900000E-01   1.00800           0
     24229 MEMB     195      PMPE     C25      CTL2    -0.180000       12.0110           0
     24230 MEMB     195      PMPE     H5R      HAL2     0.900000E-01   1.00800           0
     24231 MEMB     195      PMPE     H5S      HAL2     0.900000E-01   1.00800           0
     24232 MEMB     195      PMPE     C26      CTL2    -0.180000       12.0110           0
     24233 MEMB     195      PMPE     H6R      HAL2     0.900000E-01   1.00800           0
     24234 MEMB     195      PMPE     H6S      HAL2     0.900000E-01   1.00800           0
     24235 MEMB     195      PMPE     C27      CTL2    -0.180000       12.0110           0
     24236 MEMB     195      PMPE     H7R      HAL2     0.900000E-01   1.00800           0
     24237 MEMB     195      PMPE     H7S      HAL2     0.900000E-01   1.00800           0
     24238 MEMB     195      PMPE     C28      CTL2    -0.180000       12.0110           0
     24239 MEMB     195      PMPE     H8R      HAL2     0.900000E-01   1.00800           0
     24240 MEMB     195      PMPE     H8S      HAL2     0.900000E-01   1.00800           0
     24241 MEMB     195      PMPE     C29      CG3RC1  -0.900000E-01   12.0110           0
     24242 MEMB     195      PMPE     H9R      HGA1     0.900000E-01   1.00800           0
     24243 MEMB     195      PMPE     C217     CG3C31  -0.180000       12.0110           0
     24244 MEMB     195      PMPE     H17R     HGA2     0.900000E-01   1.00800           0
     24245 MEMB     195      PMPE     H17S     HGA2     0.900000E-01   1.00800           0
     24246 MEMB     195      PMPE     C210     CG3RC1  -0.900000E-01   12.0110           0
     24247 MEMB     195      PMPE     H10R     HGA1     0.900000E-01   1.00800           0
     24248 MEMB     195      PMPE     C211     CTL2    -0.180000       12.0110           0
     24249 MEMB     195      PMPE     H11R     HAL2     0.900000E-01   1.00800           0
     24250 MEMB     195      PMPE     H11S     HAL2     0.900000E-01   1.00800           0
     24251 MEMB     195      PMPE     C212     CTL2    -0.180000       12.0110           0
     24252 MEMB     195      PMPE     H12R     HAL2     0.900000E-01   1.00800           0
     24253 MEMB     195      PMPE     H12S     HAL2     0.900000E-01   1.00800           0
     24254 MEMB     195      PMPE     C213     CTL2    -0.180000       12.0110           0
     24255 MEMB     195      PMPE     H13R     HAL2     0.900000E-01   1.00800           0
     24256 MEMB     195      PMPE     H13S     HAL2     0.900000E-01   1.00800           0
     24257 MEMB     195      PMPE     C214     CTL2    -0.180000       12.0110           0
     24258 MEMB     195      PMPE     H14R     HAL2     0.900000E-01   1.00800           0
     24259 MEMB     195      PMPE     H14S     HAL2     0.900000E-01   1.00800           0
     24260 MEMB     195      PMPE     C215     CTL2    -0.180000       12.0110           0
     24261 MEMB     195      PMPE     H15R     HAL2     0.900000E-01   1.00800           0
     24262 MEMB     195      PMPE     H15S     HAL2     0.900000E-01   1.00800           0
     24263 MEMB     195      PMPE     C216     CTL3    -0.270000       12.0110           0
     24264 MEMB     195      PMPE     H16R     HAL3     0.900000E-01   1.00800           0
     24265 MEMB     195      PMPE     H16S     HAL3     0.900000E-01   1.00800           0
     24266 MEMB     195      PMPE     H16T     HAL3     0.900000E-01   1.00800           0
     24267 MEMB     195      PMPE     C33      CTL2    -0.180000       12.0110           0
     24268 MEMB     195      PMPE     H3X      HAL2     0.900000E-01   1.00800           0
     24269 MEMB     195      PMPE     H3Y      HAL2     0.900000E-01   1.00800           0
     24270 MEMB     195      PMPE     C34      CTL2    -0.180000       12.0110           0
     24271 MEMB     195      PMPE     H4X      HAL2     0.900000E-01   1.00800           0
     24272 MEMB     195      PMPE     H4Y      HAL2     0.900000E-01   1.00800           0
     24273 MEMB     195      PMPE     C35      CTL2    -0.180000       12.0110           0
     24274 MEMB     195      PMPE     H5X      HAL2     0.900000E-01   1.00800           0
     24275 MEMB     195      PMPE     H5Y      HAL2     0.900000E-01   1.00800           0
     24276 MEMB     195      PMPE     C36      CTL2    -0.180000       12.0110           0
     24277 MEMB     195      PMPE     H6X      HAL2     0.900000E-01   1.00800           0
     24278 MEMB     195      PMPE     H6Y      HAL2     0.900000E-01   1.00800           0
     24279 MEMB     195      PMPE     C37      CTL2    -0.180000       12.0110           0
     24280 MEMB     195      PMPE     H7X      HAL2     0.900000E-01   1.00800           0
     24281 MEMB     195      PMPE     H7Y      HAL2     0.900000E-01   1.00800           0
     24282 MEMB     195      PMPE     C38      CTL2    -0.180000       12.0110           0
     24283 MEMB     195      PMPE     H8X      HAL2     0.900000E-01   1.00800           0
     24284 MEMB     195      PMPE     H8Y      HAL2     0.900000E-01   1.00800           0
     24285 MEMB     195      PMPE     C39      CTL2    -0.180000       12.0110           0
     24286 MEMB     195      PMPE     H9X      HAL2     0.900000E-01   1.00800           0
     24287 MEMB     195      PMPE     H9Y      HAL2     0.900000E-01   1.00800           0
     24288 MEMB     195      PMPE     C310     CTL2    -0.180000       12.0110           0
     24289 MEMB     195      PMPE     H10X     HAL2     0.900000E-01   1.00800           0
     24290 MEMB     195      PMPE     H10Y     HAL2     0.900000E-01   1.00800           0
     24291 MEMB     195      PMPE     C311     CTL2    -0.180000       12.0110           0
     24292 MEMB     195      PMPE     H11X     HAL2     0.900000E-01   1.00800           0
     24293 MEMB     195      PMPE     H11Y     HAL2     0.900000E-01   1.00800           0
     24294 MEMB     195      PMPE     C312     CTL2    -0.180000       12.0110           0
     24295 MEMB     195      PMPE     H12X     HAL2     0.900000E-01   1.00800           0
     24296 MEMB     195      PMPE     H12Y     HAL2     0.900000E-01   1.00800           0
     24297 MEMB     195      PMPE     C313     CTL2    -0.180000       12.0110           0
     24298 MEMB     195      PMPE     H13X     HAL2     0.900000E-01   1.00800           0
     24299 MEMB     195      PMPE     H13Y     HAL2     0.900000E-01   1.00800           0
     24300 MEMB     195      PMPE     C314     CTL2    -0.180000       12.0110           0
     24301 MEMB     195      PMPE     H14X     HAL2     0.900000E-01   1.00800           0
     24302 MEMB     195      PMPE     H14Y     HAL2     0.900000E-01   1.00800           0
     24303 MEMB     195      PMPE     C315     CTL2    -0.180000       12.0110           0
     24304 MEMB     195      PMPE     H15X     HAL2     0.900000E-01   1.00800           0
     24305 MEMB     195      PMPE     H15Y     HAL2     0.900000E-01   1.00800           0
     24306 MEMB     195      PMPE     C316     CTL3    -0.270000       12.0110           0
     24307 MEMB     195      PMPE     H16X     HAL3     0.900000E-01   1.00800           0
     24308 MEMB     195      PMPE     H16Y     HAL3     0.900000E-01   1.00800           0
     24309 MEMB     195      PMPE     H16Z     HAL3     0.900000E-01   1.00800           0
     24310 MEMB     196      POPE     N        NH3L    -0.300000       14.0070           0
     24311 MEMB     196      POPE     HN1      HCL      0.330000       1.00800           0
     24312 MEMB     196      POPE     HN2      HCL      0.330000       1.00800           0
     24313 MEMB     196      POPE     HN3      HCL      0.330000       1.00800           0
     24314 MEMB     196      POPE     C12      CTL2     0.130000       12.0110           0
     24315 MEMB     196      POPE     H12A     HAL2     0.900000E-01   1.00800           0
     24316 MEMB     196      POPE     H12B     HAL2     0.900000E-01   1.00800           0
     24317 MEMB     196      POPE     C11      CTL2    -0.800000E-01   12.0110           0
     24318 MEMB     196      POPE     H11A     HAL2     0.900000E-01   1.00800           0
     24319 MEMB     196      POPE     H11B     HAL2     0.900000E-01   1.00800           0
     24320 MEMB     196      POPE     P        PL        1.50000       30.9740           0
     24321 MEMB     196      POPE     O13      O2L     -0.780000       15.9994           0
     24322 MEMB     196      POPE     O14      O2L     -0.780000       15.9994           0
     24323 MEMB     196      POPE     O11      OSLP    -0.570000       15.9994           0
     24324 MEMB     196      POPE     O12      OSLP    -0.570000       15.9994           0
     24325 MEMB     196      POPE     C1       CTL2    -0.800000E-01   12.0110           0
     24326 MEMB     196      POPE     HA       HAL2     0.900000E-01   1.00800           0
     24327 MEMB     196      POPE     HB       HAL2     0.900000E-01   1.00800           0
     24328 MEMB     196      POPE     C2       CTL1     0.170000       12.0110           0
     24329 MEMB     196      POPE     HS       HAL1     0.900000E-01   1.00800           0
     24330 MEMB     196      POPE     O21      OSL     -0.490000       15.9994           0
     24331 MEMB     196      POPE     C21      CL       0.900000       12.0110           0
     24332 MEMB     196      POPE     O22      OBL     -0.630000       15.9994           0
     24333 MEMB     196      POPE     C22      CTL2    -0.220000       12.0110           0
     24334 MEMB     196      POPE     H2R      HAL2     0.900000E-01   1.00800           0
     24335 MEMB     196      POPE     H2S      HAL2     0.900000E-01   1.00800           0
     24336 MEMB     196      POPE     C3       CTL2     0.800000E-01   12.0110           0
     24337 MEMB     196      POPE     HX       HAL2     0.900000E-01   1.00800           0
     24338 MEMB     196      POPE     HY       HAL2     0.900000E-01   1.00800           0
     24339 MEMB     196      POPE     O31      OSL     -0.490000       15.9994           0
     24340 MEMB     196      POPE     C31      CL       0.900000       12.0110           0
     24341 MEMB     196      POPE     O32      OBL     -0.630000       15.9994           0
     24342 MEMB     196      POPE     C32      CTL2    -0.220000       12.0110           0
     24343 MEMB     196      POPE     H2X      HAL2     0.900000E-01   1.00800           0
     24344 MEMB     196      POPE     H2Y      HAL2     0.900000E-01   1.00800           0
     24345 MEMB     196      POPE     C23      CTL2    -0.180000       12.0110           0
     24346 MEMB     196      POPE     H3R      HAL2     0.900000E-01   1.00800           0
     24347 MEMB     196      POPE     H3S      HAL2     0.900000E-01   1.00800           0
     24348 MEMB     196      POPE     C24      CTL2    -0.180000       12.0110           0
     24349 MEMB     196      POPE     H4R      HAL2     0.900000E-01   1.00800           0
     24350 MEMB     196      POPE     H4S      HAL2     0.900000E-01   1.00800           0
     24351 MEMB     196      POPE     C25      CTL2    -0.180000       12.0110           0
     24352 MEMB     196      POPE     H5R      HAL2     0.900000E-01   1.00800           0
     24353 MEMB     196      POPE     H5S      HAL2     0.900000E-01   1.00800           0
     24354 MEMB     196      POPE     C26      CTL2    -0.180000       12.0110           0
     24355 MEMB     196      POPE     H6R      HAL2     0.900000E-01   1.00800           0
     24356 MEMB     196      POPE     H6S      HAL2     0.900000E-01   1.00800           0
     24357 MEMB     196      POPE     C27      CTL2    -0.180000       12.0110           0
     24358 MEMB     196      POPE     H7R      HAL2     0.900000E-01   1.00800           0
     24359 MEMB     196      POPE     H7S      HAL2     0.900000E-01   1.00800           0
     24360 MEMB     196      POPE     C28      CTL2    -0.180000       12.0110           0
     24361 MEMB     196      POPE     H8R      HAL2     0.900000E-01   1.00800           0
     24362 MEMB     196      POPE     H8S      HAL2     0.900000E-01   1.00800           0
     24363 MEMB     196      POPE     C29      CEL1    -0.150000       12.0110           0
     24364 MEMB     196      POPE     H91      HEL1     0.150000       1.00800           0
     24365 MEMB     196      POPE     C210     CEL1    -0.150000       12.0110           0
     24366 MEMB     196      POPE     H101     HEL1     0.150000       1.00800           0
     24367 MEMB     196      POPE     C211     CTL2    -0.180000       12.0110           0
     24368 MEMB     196      POPE     H11R     HAL2     0.900000E-01   1.00800           0
     24369 MEMB     196      POPE     H11S     HAL2     0.900000E-01   1.00800           0
     24370 MEMB     196      POPE     C212     CTL2    -0.180000       12.0110           0
     24371 MEMB     196      POPE     H12R     HAL2     0.900000E-01   1.00800           0
     24372 MEMB     196      POPE     H12S     HAL2     0.900000E-01   1.00800           0
     24373 MEMB     196      POPE     C213     CTL2    -0.180000       12.0110           0
     24374 MEMB     196      POPE     H13R     HAL2     0.900000E-01   1.00800           0
     24375 MEMB     196      POPE     H13S     HAL2     0.900000E-01   1.00800           0
     24376 MEMB     196      POPE     C214     CTL2    -0.180000       12.0110           0
     24377 MEMB     196      POPE     H14R     HAL2     0.900000E-01   1.00800           0
     24378 MEMB     196      POPE     H14S     HAL2     0.900000E-01   1.00800           0
     24379 MEMB     196      POPE     C215     CTL2    -0.180000       12.0110           0
     24380 MEMB     196      POPE     H15R     HAL2     0.900000E-01   1.00800           0
     24381 MEMB     196      POPE     H15S     HAL2     0.900000E-01   1.00800           0
     24382 MEMB     196      POPE     C216     CTL2    -0.180000       12.0110           0
     24383 MEMB     196      POPE     H16R     HAL2     0.900000E-01   1.00800           0
     24384 MEMB     196      POPE     H16S     HAL2     0.900000E-01   1.00800           0
     24385 MEMB     196      POPE     C217     CTL2    -0.180000       12.0110           0
     24386 MEMB     196      POPE     H17R     HAL2     0.900000E-01   1.00800           0
     24387 MEMB     196      POPE     H17S     HAL2     0.900000E-01   1.00800           0
     24388 MEMB     196      POPE     C218     CTL3    -0.270000       12.0110           0
     24389 MEMB     196      POPE     H18R     HAL3     0.900000E-01   1.00800           0
     24390 MEMB     196      POPE     H18S     HAL3     0.900000E-01   1.00800           0
     24391 MEMB     196      POPE     H18T     HAL3     0.900000E-01   1.00800           0
     24392 MEMB     196      POPE     C33      CTL2    -0.180000       12.0110           0
     24393 MEMB     196      POPE     H3X      HAL2     0.900000E-01   1.00800           0
     24394 MEMB     196      POPE     H3Y      HAL2     0.900000E-01   1.00800           0
     24395 MEMB     196      POPE     C34      CTL2    -0.180000       12.0110           0
     24396 MEMB     196      POPE     H4X      HAL2     0.900000E-01   1.00800           0
     24397 MEMB     196      POPE     H4Y      HAL2     0.900000E-01   1.00800           0
     24398 MEMB     196      POPE     C35      CTL2    -0.180000       12.0110           0
     24399 MEMB     196      POPE     H5X      HAL2     0.900000E-01   1.00800           0
     24400 MEMB     196      POPE     H5Y      HAL2     0.900000E-01   1.00800           0
     24401 MEMB     196      POPE     C36      CTL2    -0.180000       12.0110           0
     24402 MEMB     196      POPE     H6X      HAL2     0.900000E-01   1.00800           0
     24403 MEMB     196      POPE     H6Y      HAL2     0.900000E-01   1.00800           0
     24404 MEMB     196      POPE     C37      CTL2    -0.180000       12.0110           0
     24405 MEMB     196      POPE     H7X      HAL2     0.900000E-01   1.00800           0
     24406 MEMB     196      POPE     H7Y      HAL2     0.900000E-01   1.00800           0
     24407 MEMB     196      POPE     C38      CTL2    -0.180000       12.0110           0
     24408 MEMB     196      POPE     H8X      HAL2     0.900000E-01   1.00800           0
     24409 MEMB     196      POPE     H8Y      HAL2     0.900000E-01   1.00800           0
     24410 MEMB     196      POPE     C39      CTL2    -0.180000       12.0110           0
     24411 MEMB     196      POPE     H9X      HAL2     0.900000E-01   1.00800           0
     24412 MEMB     196      POPE     H9Y      HAL2     0.900000E-01   1.00800           0
     24413 MEMB     196      POPE     C310     CTL2    -0.180000       12.0110           0
     24414 MEMB     196      POPE     H10X     HAL2     0.900000E-01   1.00800           0
     24415 MEMB     196      POPE     H10Y     HAL2     0.900000E-01   1.00800           0
     24416 MEMB     196      POPE     C311     CTL2    -0.180000       12.0110           0
     24417 MEMB     196      POPE     H11X     HAL2     0.900000E-01   1.00800           0
     24418 MEMB     196      POPE     H11Y     HAL2     0.900000E-01   1.00800           0
     24419 MEMB     196      POPE     C312     CTL2    -0.180000       12.0110           0
     24420 MEMB     196      POPE     H12X     HAL2     0.900000E-01   1.00800           0
     24421 MEMB     196      POPE     H12Y     HAL2     0.900000E-01   1.00800           0
     24422 MEMB     196      POPE     C313     CTL2    -0.180000       12.0110           0
     24423 MEMB     196      POPE     H13X     HAL2     0.900000E-01   1.00800           0
     24424 MEMB     196      POPE     H13Y     HAL2     0.900000E-01   1.00800           0
     24425 MEMB     196      POPE     C314     CTL2    -0.180000       12.0110           0
     24426 MEMB     196      POPE     H14X     HAL2     0.900000E-01   1.00800           0
     24427 MEMB     196      POPE     H14Y     HAL2     0.900000E-01   1.00800           0
     24428 MEMB     196      POPE     C315     CTL2    -0.180000       12.0110           0
     24429 MEMB     196      POPE     H15X     HAL2     0.900000E-01   1.00800           0
     24430 MEMB     196      POPE     H15Y     HAL2     0.900000E-01   1.00800           0
     24431 MEMB     196      POPE     C316     CTL3    -0.270000       12.0110           0
     24432 MEMB     196      POPE     H16X     HAL3     0.900000E-01   1.00800           0
     24433 MEMB     196      POPE     H16Y     HAL3     0.900000E-01   1.00800           0
     24434 MEMB     196      POPE     H16Z     HAL3     0.900000E-01   1.00800           0
     24435 MEMB     197      PMPE     N        NH3L    -0.300000       14.0070           0
     24436 MEMB     197      PMPE     HN1      HCL      0.330000       1.00800           0
     24437 MEMB     197      PMPE     HN2      HCL      0.330000       1.00800           0
     24438 MEMB     197      PMPE     HN3      HCL      0.330000       1.00800           0
     24439 MEMB     197      PMPE     C12      CTL2     0.130000       12.0110           0
     24440 MEMB     197      PMPE     H12A     HAL2     0.900000E-01   1.00800           0
     24441 MEMB     197      PMPE     H12B     HAL2     0.900000E-01   1.00800           0
     24442 MEMB     197      PMPE     C11      CTL2    -0.800000E-01   12.0110           0
     24443 MEMB     197      PMPE     H11A     HAL2     0.900000E-01   1.00800           0
     24444 MEMB     197      PMPE     H11B     HAL2     0.900000E-01   1.00800           0
     24445 MEMB     197      PMPE     P        PL        1.50000       30.9740           0
     24446 MEMB     197      PMPE     O13      O2L     -0.780000       15.9994           0
     24447 MEMB     197      PMPE     O14      O2L     -0.780000       15.9994           0
     24448 MEMB     197      PMPE     O11      OSLP    -0.570000       15.9994           0
     24449 MEMB     197      PMPE     O12      OSLP    -0.570000       15.9994           0
     24450 MEMB     197      PMPE     C1       CTL2    -0.800000E-01   12.0110           0
     24451 MEMB     197      PMPE     HA       HAL2     0.900000E-01   1.00800           0
     24452 MEMB     197      PMPE     HB       HAL2     0.900000E-01   1.00800           0
     24453 MEMB     197      PMPE     C2       CTL1     0.170000       12.0110           0
     24454 MEMB     197      PMPE     HS       HAL1     0.900000E-01   1.00800           0
     24455 MEMB     197      PMPE     O21      OSL     -0.490000       15.9994           0
     24456 MEMB     197      PMPE     C21      CL       0.900000       12.0110           0
     24457 MEMB     197      PMPE     O22      OBL     -0.630000       15.9994           0
     24458 MEMB     197      PMPE     C22      CTL2    -0.220000       12.0110           0
     24459 MEMB     197      PMPE     H2R      HAL2     0.900000E-01   1.00800           0
     24460 MEMB     197      PMPE     H2S      HAL2     0.900000E-01   1.00800           0
     24461 MEMB     197      PMPE     C3       CTL2     0.800000E-01   12.0110           0
     24462 MEMB     197      PMPE     HX       HAL2     0.900000E-01   1.00800           0
     24463 MEMB     197      PMPE     HY       HAL2     0.900000E-01   1.00800           0
     24464 MEMB     197      PMPE     O31      OSL     -0.490000       15.9994           0
     24465 MEMB     197      PMPE     C31      CL       0.900000       12.0110           0
     24466 MEMB     197      PMPE     O32      OBL     -0.630000       15.9994           0
     24467 MEMB     197      PMPE     C32      CTL2    -0.220000       12.0110           0
     24468 MEMB     197      PMPE     H2X      HAL2     0.900000E-01   1.00800           0
     24469 MEMB     197      PMPE     H2Y      HAL2     0.900000E-01   1.00800           0
     24470 MEMB     197      PMPE     C23      CTL2    -0.180000       12.0110           0
     24471 MEMB     197      PMPE     H3R      HAL2     0.900000E-01   1.00800           0
     24472 MEMB     197      PMPE     H3S      HAL2     0.900000E-01   1.00800           0
     24473 MEMB     197      PMPE     C24      CTL2    -0.180000       12.0110           0
     24474 MEMB     197      PMPE     H4R      HAL2     0.900000E-01   1.00800           0
     24475 MEMB     197      PMPE     H4S      HAL2     0.900000E-01   1.00800           0
     24476 MEMB     197      PMPE     C25      CTL2    -0.180000       12.0110           0
     24477 MEMB     197      PMPE     H5R      HAL2     0.900000E-01   1.00800           0
     24478 MEMB     197      PMPE     H5S      HAL2     0.900000E-01   1.00800           0
     24479 MEMB     197      PMPE     C26      CTL2    -0.180000       12.0110           0
     24480 MEMB     197      PMPE     H6R      HAL2     0.900000E-01   1.00800           0
     24481 MEMB     197      PMPE     H6S      HAL2     0.900000E-01   1.00800           0
     24482 MEMB     197      PMPE     C27      CTL2    -0.180000       12.0110           0
     24483 MEMB     197      PMPE     H7R      HAL2     0.900000E-01   1.00800           0
     24484 MEMB     197      PMPE     H7S      HAL2     0.900000E-01   1.00800           0
     24485 MEMB     197      PMPE     C28      CTL2    -0.180000       12.0110           0
     24486 MEMB     197      PMPE     H8R      HAL2     0.900000E-01   1.00800           0
     24487 MEMB     197      PMPE     H8S      HAL2     0.900000E-01   1.00800           0
     24488 MEMB     197      PMPE     C29      CG3RC1  -0.900000E-01   12.0110           0
     24489 MEMB     197      PMPE     H9R      HGA1     0.900000E-01   1.00800           0
     24490 MEMB     197      PMPE     C217     CG3C31  -0.180000       12.0110           0
     24491 MEMB     197      PMPE     H17R     HGA2     0.900000E-01   1.00800           0
     24492 MEMB     197      PMPE     H17S     HGA2     0.900000E-01   1.00800           0
     24493 MEMB     197      PMPE     C210     CG3RC1  -0.900000E-01   12.0110           0
     24494 MEMB     197      PMPE     H10R     HGA1     0.900000E-01   1.00800           0
     24495 MEMB     197      PMPE     C211     CTL2    -0.180000       12.0110           0
     24496 MEMB     197      PMPE     H11R     HAL2     0.900000E-01   1.00800           0
     24497 MEMB     197      PMPE     H11S     HAL2     0.900000E-01   1.00800           0
     24498 MEMB     197      PMPE     C212     CTL2    -0.180000       12.0110           0
     24499 MEMB     197      PMPE     H12R     HAL2     0.900000E-01   1.00800           0
     24500 MEMB     197      PMPE     H12S     HAL2     0.900000E-01   1.00800           0
     24501 MEMB     197      PMPE     C213     CTL2    -0.180000       12.0110           0
     24502 MEMB     197      PMPE     H13R     HAL2     0.900000E-01   1.00800           0
     24503 MEMB     197      PMPE     H13S     HAL2     0.900000E-01   1.00800           0
     24504 MEMB     197      PMPE     C214     CTL2    -0.180000       12.0110           0
     24505 MEMB     197      PMPE     H14R     HAL2     0.900000E-01   1.00800           0
     24506 MEMB     197      PMPE     H14S     HAL2     0.900000E-01   1.00800           0
     24507 MEMB     197      PMPE     C215     CTL2    -0.180000       12.0110           0
     24508 MEMB     197      PMPE     H15R     HAL2     0.900000E-01   1.00800           0
     24509 MEMB     197      PMPE     H15S     HAL2     0.900000E-01   1.00800           0
     24510 MEMB     197      PMPE     C216     CTL3    -0.270000       12.0110           0
     24511 MEMB     197      PMPE     H16R     HAL3     0.900000E-01   1.00800           0
     24512 MEMB     197      PMPE     H16S     HAL3     0.900000E-01   1.00800           0
     24513 MEMB     197      PMPE     H16T     HAL3     0.900000E-01   1.00800           0
     24514 MEMB     197      PMPE     C33      CTL2    -0.180000       12.0110           0
     24515 MEMB     197      PMPE     H3X      HAL2     0.900000E-01   1.00800           0
     24516 MEMB     197      PMPE     H3Y      HAL2     0.900000E-01   1.00800           0
     24517 MEMB     197      PMPE     C34      CTL2    -0.180000       12.0110           0
     24518 MEMB     197      PMPE     H4X      HAL2     0.900000E-01   1.00800           0
     24519 MEMB     197      PMPE     H4Y      HAL2     0.900000E-01   1.00800           0
     24520 MEMB     197      PMPE     C35      CTL2    -0.180000       12.0110           0
     24521 MEMB     197      PMPE     H5X      HAL2     0.900000E-01   1.00800           0
     24522 MEMB     197      PMPE     H5Y      HAL2     0.900000E-01   1.00800           0
     24523 MEMB     197      PMPE     C36      CTL2    -0.180000       12.0110           0
     24524 MEMB     197      PMPE     H6X      HAL2     0.900000E-01   1.00800           0
     24525 MEMB     197      PMPE     H6Y      HAL2     0.900000E-01   1.00800           0
     24526 MEMB     197      PMPE     C37      CTL2    -0.180000       12.0110           0
     24527 MEMB     197      PMPE     H7X      HAL2     0.900000E-01   1.00800           0
     24528 MEMB     197      PMPE     H7Y      HAL2     0.900000E-01   1.00800           0
     24529 MEMB     197      PMPE     C38      CTL2    -0.180000       12.0110           0
     24530 MEMB     197      PMPE     H8X      HAL2     0.900000E-01   1.00800           0
     24531 MEMB     197      PMPE     H8Y      HAL2     0.900000E-01   1.00800           0
     24532 MEMB     197      PMPE     C39      CTL2    -0.180000       12.0110           0
     24533 MEMB     197      PMPE     H9X      HAL2     0.900000E-01   1.00800           0
     24534 MEMB     197      PMPE     H9Y      HAL2     0.900000E-01   1.00800           0
     24535 MEMB     197      PMPE     C310     CTL2    -0.180000       12.0110           0
     24536 MEMB     197      PMPE     H10X     HAL2     0.900000E-01   1.00800           0
     24537 MEMB     197      PMPE     H10Y     HAL2     0.900000E-01   1.00800           0
     24538 MEMB     197      PMPE     C311     CTL2    -0.180000       12.0110           0
     24539 MEMB     197      PMPE     H11X     HAL2     0.900000E-01   1.00800           0
     24540 MEMB     197      PMPE     H11Y     HAL2     0.900000E-01   1.00800           0
     24541 MEMB     197      PMPE     C312     CTL2    -0.180000       12.0110           0
     24542 MEMB     197      PMPE     H12X     HAL2     0.900000E-01   1.00800           0
     24543 MEMB     197      PMPE     H12Y     HAL2     0.900000E-01   1.00800           0
     24544 MEMB     197      PMPE     C313     CTL2    -0.180000       12.0110           0
     24545 MEMB     197      PMPE     H13X     HAL2     0.900000E-01   1.00800           0
     24546 MEMB     197      PMPE     H13Y     HAL2     0.900000E-01   1.00800           0
     24547 MEMB     197      PMPE     C314     CTL2    -0.180000       12.0110           0
     24548 MEMB     197      PMPE     H14X     HAL2     0.900000E-01   1.00800           0
     24549 MEMB     197      PMPE     H14Y     HAL2     0.900000E-01   1.00800           0
     24550 MEMB     197      PMPE     C315     CTL2    -0.180000       12.0110           0
     24551 MEMB     197      PMPE     H15X     HAL2     0.900000E-01   1.00800           0
     24552 MEMB     197      PMPE     H15Y     HAL2     0.900000E-01   1.00800           0
     24553 MEMB     197      PMPE     C316     CTL3    -0.270000       12.0110           0
     24554 MEMB     197      PMPE     H16X     HAL3     0.900000E-01   1.00800           0
     24555 MEMB     197      PMPE     H16Y     HAL3     0.900000E-01   1.00800           0
     24556 MEMB     197      PMPE     H16Z     HAL3     0.900000E-01   1.00800           0
     24557 MEMB     198      QMPE     N        NH3L    -0.300000       14.0070           0
     24558 MEMB     198      QMPE     HN1      HCL      0.330000       1.00800           0
     24559 MEMB     198      QMPE     HN2      HCL      0.330000       1.00800           0
     24560 MEMB     198      QMPE     HN3      HCL      0.330000       1.00800           0
     24561 MEMB     198      QMPE     C12      CTL2     0.130000       12.0110           0
     24562 MEMB     198      QMPE     H12A     HAL2     0.900000E-01   1.00800           0
     24563 MEMB     198      QMPE     H12B     HAL2     0.900000E-01   1.00800           0
     24564 MEMB     198      QMPE     C11      CTL2    -0.800000E-01   12.0110           0
     24565 MEMB     198      QMPE     H11A     HAL2     0.900000E-01   1.00800           0
     24566 MEMB     198      QMPE     H11B     HAL2     0.900000E-01   1.00800           0
     24567 MEMB     198      QMPE     P        PL        1.50000       30.9740           0
     24568 MEMB     198      QMPE     O13      O2L     -0.780000       15.9994           0
     24569 MEMB     198      QMPE     O14      O2L     -0.780000       15.9994           0
     24570 MEMB     198      QMPE     O11      OSLP    -0.570000       15.9994           0
     24571 MEMB     198      QMPE     O12      OSLP    -0.570000       15.9994           0
     24572 MEMB     198      QMPE     C1       CTL2    -0.800000E-01   12.0110           0
     24573 MEMB     198      QMPE     HA       HAL2     0.900000E-01   1.00800           0
     24574 MEMB     198      QMPE     HB       HAL2     0.900000E-01   1.00800           0
     24575 MEMB     198      QMPE     C2       CTL1     0.170000       12.0110           0
     24576 MEMB     198      QMPE     HS       HAL1     0.900000E-01   1.00800           0
     24577 MEMB     198      QMPE     O21      OSL     -0.490000       15.9994           0
     24578 MEMB     198      QMPE     C21      CL       0.900000       12.0110           0
     24579 MEMB     198      QMPE     O22      OBL     -0.630000       15.9994           0
     24580 MEMB     198      QMPE     C22      CTL2    -0.220000       12.0110           0
     24581 MEMB     198      QMPE     H2R      HAL2     0.900000E-01   1.00800           0
     24582 MEMB     198      QMPE     H2S      HAL2     0.900000E-01   1.00800           0
     24583 MEMB     198      QMPE     C3       CTL2     0.800000E-01   12.0110           0
     24584 MEMB     198      QMPE     HX       HAL2     0.900000E-01   1.00800           0
     24585 MEMB     198      QMPE     HY       HAL2     0.900000E-01   1.00800           0
     24586 MEMB     198      QMPE     O31      OSL     -0.490000       15.9994           0
     24587 MEMB     198      QMPE     C31      CL       0.900000       12.0110           0
     24588 MEMB     198      QMPE     O32      OBL     -0.630000       15.9994           0
     24589 MEMB     198      QMPE     C32      CTL2    -0.220000       12.0110           0
     24590 MEMB     198      QMPE     H2X      HAL2     0.900000E-01   1.00800           0
     24591 MEMB     198      QMPE     H2Y      HAL2     0.900000E-01   1.00800           0
     24592 MEMB     198      QMPE     C23      CTL2    -0.180000       12.0110           0
     24593 MEMB     198      QMPE     H3R      HAL2     0.900000E-01   1.00800           0
     24594 MEMB     198      QMPE     H3S      HAL2     0.900000E-01   1.00800           0
     24595 MEMB     198      QMPE     C24      CTL2    -0.180000       12.0110           0
     24596 MEMB     198      QMPE     H4R      HAL2     0.900000E-01   1.00800           0
     24597 MEMB     198      QMPE     H4S      HAL2     0.900000E-01   1.00800           0
     24598 MEMB     198      QMPE     C25      CTL2    -0.180000       12.0110           0
     24599 MEMB     198      QMPE     H5R      HAL2     0.900000E-01   1.00800           0
     24600 MEMB     198      QMPE     H5S      HAL2     0.900000E-01   1.00800           0
     24601 MEMB     198      QMPE     C26      CTL2    -0.180000       12.0110           0
     24602 MEMB     198      QMPE     H6R      HAL2     0.900000E-01   1.00800           0
     24603 MEMB     198      QMPE     H6S      HAL2     0.900000E-01   1.00800           0
     24604 MEMB     198      QMPE     C27      CTL2    -0.180000       12.0110           0
     24605 MEMB     198      QMPE     H7R      HAL2     0.900000E-01   1.00800           0
     24606 MEMB     198      QMPE     H7S      HAL2     0.900000E-01   1.00800           0
     24607 MEMB     198      QMPE     C28      CTL2    -0.180000       12.0110           0
     24608 MEMB     198      QMPE     H8R      HAL2     0.900000E-01   1.00800           0
     24609 MEMB     198      QMPE     H8S      HAL2     0.900000E-01   1.00800           0
     24610 MEMB     198      QMPE     C29      CG3RC1  -0.900000E-01   12.0110           0
     24611 MEMB     198      QMPE     H9R      HGA1     0.900000E-01   1.00800           0
     24612 MEMB     198      QMPE     C217     CG3C31  -0.180000       12.0110           0
     24613 MEMB     198      QMPE     H17R     HGA2     0.900000E-01   1.00800           0
     24614 MEMB     198      QMPE     H17S     HGA2     0.900000E-01   1.00800           0
     24615 MEMB     198      QMPE     C210     CG3RC1  -0.900000E-01   12.0110           0
     24616 MEMB     198      QMPE     H10R     HGA1     0.900000E-01   1.00800           0
     24617 MEMB     198      QMPE     C211     CTL2    -0.180000       12.0110           0
     24618 MEMB     198      QMPE     H11R     HAL2     0.900000E-01   1.00800           0
     24619 MEMB     198      QMPE     H11S     HAL2     0.900000E-01   1.00800           0
     24620 MEMB     198      QMPE     C212     CTL2    -0.180000       12.0110           0
     24621 MEMB     198      QMPE     H12R     HAL2     0.900000E-01   1.00800           0
     24622 MEMB     198      QMPE     H12S     HAL2     0.900000E-01   1.00800           0
     24623 MEMB     198      QMPE     C213     CTL2    -0.180000       12.0110           0
     24624 MEMB     198      QMPE     H13R     HAL2     0.900000E-01   1.00800           0
     24625 MEMB     198      QMPE     H13S     HAL2     0.900000E-01   1.00800           0
     24626 MEMB     198      QMPE     C214     CTL2    -0.180000       12.0110           0
     24627 MEMB     198      QMPE     H14R     HAL2     0.900000E-01   1.00800           0
     24628 MEMB     198      QMPE     H14S     HAL2     0.900000E-01   1.00800           0
     24629 MEMB     198      QMPE     C215     CTL2    -0.180000       12.0110           0
     24630 MEMB     198      QMPE     H15R     HAL2     0.900000E-01   1.00800           0
     24631 MEMB     198      QMPE     H15S     HAL2     0.900000E-01   1.00800           0
     24632 MEMB     198      QMPE     C216     CTL3    -0.270000       12.0110           0
     24633 MEMB     198      QMPE     H16R     HAL3     0.900000E-01   1.00800           0
     24634 MEMB     198      QMPE     H16S     HAL3     0.900000E-01   1.00800           0
     24635 MEMB     198      QMPE     H16T     HAL3     0.900000E-01   1.00800           0
     24636 MEMB     198      QMPE     C33      CTL2    -0.180000       12.0110           0
     24637 MEMB     198      QMPE     H3X      HAL2     0.900000E-01   1.00800           0
     24638 MEMB     198      QMPE     H3Y      HAL2     0.900000E-01   1.00800           0
     24639 MEMB     198      QMPE     C34      CTL2    -0.180000       12.0110           0
     24640 MEMB     198      QMPE     H4X      HAL2     0.900000E-01   1.00800           0
     24641 MEMB     198      QMPE     H4Y      HAL2     0.900000E-01   1.00800           0
     24642 MEMB     198      QMPE     C35      CTL2    -0.180000       12.0110           0
     24643 MEMB     198      QMPE     H5X      HAL2     0.900000E-01   1.00800           0
     24644 MEMB     198      QMPE     H5Y      HAL2     0.900000E-01   1.00800           0
     24645 MEMB     198      QMPE     C36      CTL2    -0.180000       12.0110           0
     24646 MEMB     198      QMPE     H6X      HAL2     0.900000E-01   1.00800           0
     24647 MEMB     198      QMPE     H6Y      HAL2     0.900000E-01   1.00800           0
     24648 MEMB     198      QMPE     C37      CTL2    -0.180000       12.0110           0
     24649 MEMB     198      QMPE     H7X      HAL2     0.900000E-01   1.00800           0
     24650 MEMB     198      QMPE     H7Y      HAL2     0.900000E-01   1.00800           0
     24651 MEMB     198      QMPE     C38      CTL2    -0.180000       12.0110           0
     24652 MEMB     198      QMPE     H8X      HAL2     0.900000E-01   1.00800           0
     24653 MEMB     198      QMPE     H8Y      HAL2     0.900000E-01   1.00800           0
     24654 MEMB     198      QMPE     C39      CTL2    -0.180000       12.0110           0
     24655 MEMB     198      QMPE     H9X      HAL2     0.900000E-01   1.00800           0
     24656 MEMB     198      QMPE     H9Y      HAL2     0.900000E-01   1.00800           0
     24657 MEMB     198      QMPE     C310     CTL2    -0.180000       12.0110           0
     24658 MEMB     198      QMPE     H10X     HAL2     0.900000E-01   1.00800           0
     24659 MEMB     198      QMPE     H10Y     HAL2     0.900000E-01   1.00800           0
     24660 MEMB     198      QMPE     C311     CTL2    -0.180000       12.0110           0
     24661 MEMB     198      QMPE     H11X     HAL2     0.900000E-01   1.00800           0
     24662 MEMB     198      QMPE     H11Y     HAL2     0.900000E-01   1.00800           0
     24663 MEMB     198      QMPE     C312     CTL2    -0.180000       12.0110           0
     24664 MEMB     198      QMPE     H12X     HAL2     0.900000E-01   1.00800           0
     24665 MEMB     198      QMPE     H12Y     HAL2     0.900000E-01   1.00800           0
     24666 MEMB     198      QMPE     C313     CTL2    -0.180000       12.0110           0
     24667 MEMB     198      QMPE     H13X     HAL2     0.900000E-01   1.00800           0
     24668 MEMB     198      QMPE     H13Y     HAL2     0.900000E-01   1.00800           0
     24669 MEMB     198      QMPE     C314     CTL2    -0.180000       12.0110           0
     24670 MEMB     198      QMPE     H14X     HAL2     0.900000E-01   1.00800           0
     24671 MEMB     198      QMPE     H14Y     HAL2     0.900000E-01   1.00800           0
     24672 MEMB     198      QMPE     C315     CTL3    -0.270000       12.0110           0
     24673 MEMB     198      QMPE     H15X     HAL3     0.900000E-01   1.00800           0
     24674 MEMB     198      QMPE     H15Y     HAL3     0.900000E-01   1.00800           0
     24675 MEMB     198      QMPE     H15Z     HAL3     0.900000E-01   1.00800           0
     24676 MEMB     199      PMPE     N        NH3L    -0.300000       14.0070           0
     24677 MEMB     199      PMPE     HN1      HCL      0.330000       1.00800           0
     24678 MEMB     199      PMPE     HN2      HCL      0.330000       1.00800           0
     24679 MEMB     199      PMPE     HN3      HCL      0.330000       1.00800           0
     24680 MEMB     199      PMPE     C12      CTL2     0.130000       12.0110           0
     24681 MEMB     199      PMPE     H12A     HAL2     0.900000E-01   1.00800           0
     24682 MEMB     199      PMPE     H12B     HAL2     0.900000E-01   1.00800           0
     24683 MEMB     199      PMPE     C11      CTL2    -0.800000E-01   12.0110           0
     24684 MEMB     199      PMPE     H11A     HAL2     0.900000E-01   1.00800           0
     24685 MEMB     199      PMPE     H11B     HAL2     0.900000E-01   1.00800           0
     24686 MEMB     199      PMPE     P        PL        1.50000       30.9740           0
     24687 MEMB     199      PMPE     O13      O2L     -0.780000       15.9994           0
     24688 MEMB     199      PMPE     O14      O2L     -0.780000       15.9994           0
     24689 MEMB     199      PMPE     O11      OSLP    -0.570000       15.9994           0
     24690 MEMB     199      PMPE     O12      OSLP    -0.570000       15.9994           0
     24691 MEMB     199      PMPE     C1       CTL2    -0.800000E-01   12.0110           0
     24692 MEMB     199      PMPE     HA       HAL2     0.900000E-01   1.00800           0
     24693 MEMB     199      PMPE     HB       HAL2     0.900000E-01   1.00800           0
     24694 MEMB     199      PMPE     C2       CTL1     0.170000       12.0110           0
     24695 MEMB     199      PMPE     HS       HAL1     0.900000E-01   1.00800           0
     24696 MEMB     199      PMPE     O21      OSL     -0.490000       15.9994           0
     24697 MEMB     199      PMPE     C21      CL       0.900000       12.0110           0
     24698 MEMB     199      PMPE     O22      OBL     -0.630000       15.9994           0
     24699 MEMB     199      PMPE     C22      CTL2    -0.220000       12.0110           0
     24700 MEMB     199      PMPE     H2R      HAL2     0.900000E-01   1.00800           0
     24701 MEMB     199      PMPE     H2S      HAL2     0.900000E-01   1.00800           0
     24702 MEMB     199      PMPE     C3       CTL2     0.800000E-01   12.0110           0
     24703 MEMB     199      PMPE     HX       HAL2     0.900000E-01   1.00800           0
     24704 MEMB     199      PMPE     HY       HAL2     0.900000E-01   1.00800           0
     24705 MEMB     199      PMPE     O31      OSL     -0.490000       15.9994           0
     24706 MEMB     199      PMPE     C31      CL       0.900000       12.0110           0
     24707 MEMB     199      PMPE     O32      OBL     -0.630000       15.9994           0
     24708 MEMB     199      PMPE     C32      CTL2    -0.220000       12.0110           0
     24709 MEMB     199      PMPE     H2X      HAL2     0.900000E-01   1.00800           0
     24710 MEMB     199      PMPE     H2Y      HAL2     0.900000E-01   1.00800           0
     24711 MEMB     199      PMPE     C23      CTL2    -0.180000       12.0110           0
     24712 MEMB     199      PMPE     H3R      HAL2     0.900000E-01   1.00800           0
     24713 MEMB     199      PMPE     H3S      HAL2     0.900000E-01   1.00800           0
     24714 MEMB     199      PMPE     C24      CTL2    -0.180000       12.0110           0
     24715 MEMB     199      PMPE     H4R      HAL2     0.900000E-01   1.00800           0
     24716 MEMB     199      PMPE     H4S      HAL2     0.900000E-01   1.00800           0
     24717 MEMB     199      PMPE     C25      CTL2    -0.180000       12.0110           0
     24718 MEMB     199      PMPE     H5R      HAL2     0.900000E-01   1.00800           0
     24719 MEMB     199      PMPE     H5S      HAL2     0.900000E-01   1.00800           0
     24720 MEMB     199      PMPE     C26      CTL2    -0.180000       12.0110           0
     24721 MEMB     199      PMPE     H6R      HAL2     0.900000E-01   1.00800           0
     24722 MEMB     199      PMPE     H6S      HAL2     0.900000E-01   1.00800           0
     24723 MEMB     199      PMPE     C27      CTL2    -0.180000       12.0110           0
     24724 MEMB     199      PMPE     H7R      HAL2     0.900000E-01   1.00800           0
     24725 MEMB     199      PMPE     H7S      HAL2     0.900000E-01   1.00800           0
     24726 MEMB     199      PMPE     C28      CTL2    -0.180000       12.0110           0
     24727 MEMB     199      PMPE     H8R      HAL2     0.900000E-01   1.00800           0
     24728 MEMB     199      PMPE     H8S      HAL2     0.900000E-01   1.00800           0
     24729 MEMB     199      PMPE     C29      CG3RC1  -0.900000E-01   12.0110           0
     24730 MEMB     199      PMPE     H9R      HGA1     0.900000E-01   1.00800           0
     24731 MEMB     199      PMPE     C217     CG3C31  -0.180000       12.0110           0
     24732 MEMB     199      PMPE     H17R     HGA2     0.900000E-01   1.00800           0
     24733 MEMB     199      PMPE     H17S     HGA2     0.900000E-01   1.00800           0
     24734 MEMB     199      PMPE     C210     CG3RC1  -0.900000E-01   12.0110           0
     24735 MEMB     199      PMPE     H10R     HGA1     0.900000E-01   1.00800           0
     24736 MEMB     199      PMPE     C211     CTL2    -0.180000       12.0110           0
     24737 MEMB     199      PMPE     H11R     HAL2     0.900000E-01   1.00800           0
     24738 MEMB     199      PMPE     H11S     HAL2     0.900000E-01   1.00800           0
     24739 MEMB     199      PMPE     C212     CTL2    -0.180000       12.0110           0
     24740 MEMB     199      PMPE     H12R     HAL2     0.900000E-01   1.00800           0
     24741 MEMB     199      PMPE     H12S     HAL2     0.900000E-01   1.00800           0
     24742 MEMB     199      PMPE     C213     CTL2    -0.180000       12.0110           0
     24743 MEMB     199      PMPE     H13R     HAL2     0.900000E-01   1.00800           0
     24744 MEMB     199      PMPE     H13S     HAL2     0.900000E-01   1.00800           0
     24745 MEMB     199      PMPE     C214     CTL2    -0.180000       12.0110           0
     24746 MEMB     199      PMPE     H14R     HAL2     0.900000E-01   1.00800           0
     24747 MEMB     199      PMPE     H14S     HAL2     0.900000E-01   1.00800           0
     24748 MEMB     199      PMPE     C215     CTL2    -0.180000       12.0110           0
     24749 MEMB     199      PMPE     H15R     HAL2     0.900000E-01   1.00800           0
     24750 MEMB     199      PMPE     H15S     HAL2     0.900000E-01   1.00800           0
     24751 MEMB     199      PMPE     C216     CTL3    -0.270000       12.0110           0
     24752 MEMB     199      PMPE     H16R     HAL3     0.900000E-01   1.00800           0
     24753 MEMB     199      PMPE     H16S     HAL3     0.900000E-01   1.00800           0
     24754 MEMB     199      PMPE     H16T     HAL3     0.900000E-01   1.00800           0
     24755 MEMB     199      PMPE     C33      CTL2    -0.180000       12.0110           0
     24756 MEMB     199      PMPE     H3X      HAL2     0.900000E-01   1.00800           0
     24757 MEMB     199      PMPE     H3Y      HAL2     0.900000E-01   1.00800           0
     24758 MEMB     199      PMPE     C34      CTL2    -0.180000       12.0110           0
     24759 MEMB     199      PMPE     H4X      HAL2     0.900000E-01   1.00800           0
     24760 MEMB     199      PMPE     H4Y      HAL2     0.900000E-01   1.00800           0
     24761 MEMB     199      PMPE     C35      CTL2    -0.180000       12.0110           0
     24762 MEMB     199      PMPE     H5X      HAL2     0.900000E-01   1.00800           0
     24763 MEMB     199      PMPE     H5Y      HAL2     0.900000E-01   1.00800           0
     24764 MEMB     199      PMPE     C36      CTL2    -0.180000       12.0110           0
     24765 MEMB     199      PMPE     H6X      HAL2     0.900000E-01   1.00800           0
     24766 MEMB     199      PMPE     H6Y      HAL2     0.900000E-01   1.00800           0
     24767 MEMB     199      PMPE     C37      CTL2    -0.180000       12.0110           0
     24768 MEMB     199      PMPE     H7X      HAL2     0.900000E-01   1.00800           0
     24769 MEMB     199      PMPE     H7Y      HAL2     0.900000E-01   1.00800           0
     24770 MEMB     199      PMPE     C38      CTL2    -0.180000       12.0110           0
     24771 MEMB     199      PMPE     H8X      HAL2     0.900000E-01   1.00800           0
     24772 MEMB     199      PMPE     H8Y      HAL2     0.900000E-01   1.00800           0
     24773 MEMB     199      PMPE     C39      CTL2    -0.180000       12.0110           0
     24774 MEMB     199      PMPE     H9X      HAL2     0.900000E-01   1.00800           0
     24775 MEMB     199      PMPE     H9Y      HAL2     0.900000E-01   1.00800           0
     24776 MEMB     199      PMPE     C310     CTL2    -0.180000       12.0110           0
     24777 MEMB     199      PMPE     H10X     HAL2     0.900000E-01   1.00800           0
     24778 MEMB     199      PMPE     H10Y     HAL2     0.900000E-01   1.00800           0
     24779 MEMB     199      PMPE     C311     CTL2    -0.180000       12.0110           0
     24780 MEMB     199      PMPE     H11X     HAL2     0.900000E-01   1.00800           0
     24781 MEMB     199      PMPE     H11Y     HAL2     0.900000E-01   1.00800           0
     24782 MEMB     199      PMPE     C312     CTL2    -0.180000       12.0110           0
     24783 MEMB     199      PMPE     H12X     HAL2     0.900000E-01   1.00800           0
     24784 MEMB     199      PMPE     H12Y     HAL2     0.900000E-01   1.00800           0
     24785 MEMB     199      PMPE     C313     CTL2    -0.180000       12.0110           0
     24786 MEMB     199      PMPE     H13X     HAL2     0.900000E-01   1.00800           0
     24787 MEMB     199      PMPE     H13Y     HAL2     0.900000E-01   1.00800           0
     24788 MEMB     199      PMPE     C314     CTL2    -0.180000       12.0110           0
     24789 MEMB     199      PMPE     H14X     HAL2     0.900000E-01   1.00800           0
     24790 MEMB     199      PMPE     H14Y     HAL2     0.900000E-01   1.00800           0
     24791 MEMB     199      PMPE     C315     CTL2    -0.180000       12.0110           0
     24792 MEMB     199      PMPE     H15X     HAL2     0.900000E-01   1.00800           0
     24793 MEMB     199      PMPE     H15Y     HAL2     0.900000E-01   1.00800           0
     24794 MEMB     199      PMPE     C316     CTL3    -0.270000       12.0110           0
     24795 MEMB     199      PMPE     H16X     HAL3     0.900000E-01   1.00800           0
     24796 MEMB     199      PMPE     H16Y     HAL3     0.900000E-01   1.00800           0
     24797 MEMB     199      PMPE     H16Z     HAL3     0.900000E-01   1.00800           0
     24798 MEMB     200      QMPE     N        NH3L    -0.300000       14.0070           0
     24799 MEMB     200      QMPE     HN1      HCL      0.330000       1.00800           0
     24800 MEMB     200      QMPE     HN2      HCL      0.330000       1.00800           0
     24801 MEMB     200      QMPE     HN3      HCL      0.330000       1.00800           0
     24802 MEMB     200      QMPE     C12      CTL2     0.130000       12.0110           0
     24803 MEMB     200      QMPE     H12A     HAL2     0.900000E-01   1.00800           0
     24804 MEMB     200      QMPE     H12B     HAL2     0.900000E-01   1.00800           0
     24805 MEMB     200      QMPE     C11      CTL2    -0.800000E-01   12.0110           0
     24806 MEMB     200      QMPE     H11A     HAL2     0.900000E-01   1.00800           0
     24807 MEMB     200      QMPE     H11B     HAL2     0.900000E-01   1.00800           0
     24808 MEMB     200      QMPE     P        PL        1.50000       30.9740           0
     24809 MEMB     200      QMPE     O13      O2L     -0.780000       15.9994           0
     24810 MEMB     200      QMPE     O14      O2L     -0.780000       15.9994           0
     24811 MEMB     200      QMPE     O11      OSLP    -0.570000       15.9994           0
     24812 MEMB     200      QMPE     O12      OSLP    -0.570000       15.9994           0
     24813 MEMB     200      QMPE     C1       CTL2    -0.800000E-01   12.0110           0
     24814 MEMB     200      QMPE     HA       HAL2     0.900000E-01   1.00800           0
     24815 MEMB     200      QMPE     HB       HAL2     0.900000E-01   1.00800           0
     24816 MEMB     200      QMPE     C2       CTL1     0.170000       12.0110           0
     24817 MEMB     200      QMPE     HS       HAL1     0.900000E-01   1.00800           0
     24818 MEMB     200      QMPE     O21      OSL     -0.490000       15.9994           0
     24819 MEMB     200      QMPE     C21      CL       0.900000       12.0110           0
     24820 MEMB     200      QMPE     O22      OBL     -0.630000       15.9994           0
     24821 MEMB     200      QMPE     C22      CTL2    -0.220000       12.0110           0
     24822 MEMB     200      QMPE     H2R      HAL2     0.900000E-01   1.00800           0
     24823 MEMB     200      QMPE     H2S      HAL2     0.900000E-01   1.00800           0
     24824 MEMB     200      QMPE     C3       CTL2     0.800000E-01   12.0110           0
     24825 MEMB     200      QMPE     HX       HAL2     0.900000E-01   1.00800           0
     24826 MEMB     200      QMPE     HY       HAL2     0.900000E-01   1.00800           0
     24827 MEMB     200      QMPE     O31      OSL     -0.490000       15.9994           0
     24828 MEMB     200      QMPE     C31      CL       0.900000       12.0110           0
     24829 MEMB     200      QMPE     O32      OBL     -0.630000       15.9994           0
     24830 MEMB     200      QMPE     C32      CTL2    -0.220000       12.0110           0
     24831 MEMB     200      QMPE     H2X      HAL2     0.900000E-01   1.00800           0
     24832 MEMB     200      QMPE     H2Y      HAL2     0.900000E-01   1.00800           0
     24833 MEMB     200      QMPE     C23      CTL2    -0.180000       12.0110           0
     24834 MEMB     200      QMPE     H3R      HAL2     0.900000E-01   1.00800           0
     24835 MEMB     200      QMPE     H3S      HAL2     0.900000E-01   1.00800           0
     24836 MEMB     200      QMPE     C24      CTL2    -0.180000       12.0110           0
     24837 MEMB     200      QMPE     H4R      HAL2     0.900000E-01   1.00800           0
     24838 MEMB     200      QMPE     H4S      HAL2     0.900000E-01   1.00800           0
     24839 MEMB     200      QMPE     C25      CTL2    -0.180000       12.0110           0
     24840 MEMB     200      QMPE     H5R      HAL2     0.900000E-01   1.00800           0
     24841 MEMB     200      QMPE     H5S      HAL2     0.900000E-01   1.00800           0
     24842 MEMB     200      QMPE     C26      CTL2    -0.180000       12.0110           0
     24843 MEMB     200      QMPE     H6R      HAL2     0.900000E-01   1.00800           0
     24844 MEMB     200      QMPE     H6S      HAL2     0.900000E-01   1.00800           0
     24845 MEMB     200      QMPE     C27      CTL2    -0.180000       12.0110           0
     24846 MEMB     200      QMPE     H7R      HAL2     0.900000E-01   1.00800           0
     24847 MEMB     200      QMPE     H7S      HAL2     0.900000E-01   1.00800           0
     24848 MEMB     200      QMPE     C28      CTL2    -0.180000       12.0110           0
     24849 MEMB     200      QMPE     H8R      HAL2     0.900000E-01   1.00800           0
     24850 MEMB     200      QMPE     H8S      HAL2     0.900000E-01   1.00800           0
     24851 MEMB     200      QMPE     C29      CG3RC1  -0.900000E-01   12.0110           0
     24852 MEMB     200      QMPE     H9R      HGA1     0.900000E-01   1.00800           0
     24853 MEMB     200      QMPE     C217     CG3C31  -0.180000       12.0110           0
     24854 MEMB     200      QMPE     H17R     HGA2     0.900000E-01   1.00800           0
     24855 MEMB     200      QMPE     H17S     HGA2     0.900000E-01   1.00800           0
     24856 MEMB     200      QMPE     C210     CG3RC1  -0.900000E-01   12.0110           0
     24857 MEMB     200      QMPE     H10R     HGA1     0.900000E-01   1.00800           0
     24858 MEMB     200      QMPE     C211     CTL2    -0.180000       12.0110           0
     24859 MEMB     200      QMPE     H11R     HAL2     0.900000E-01   1.00800           0
     24860 MEMB     200      QMPE     H11S     HAL2     0.900000E-01   1.00800           0
     24861 MEMB     200      QMPE     C212     CTL2    -0.180000       12.0110           0
     24862 MEMB     200      QMPE     H12R     HAL2     0.900000E-01   1.00800           0
     24863 MEMB     200      QMPE     H12S     HAL2     0.900000E-01   1.00800           0
     24864 MEMB     200      QMPE     C213     CTL2    -0.180000       12.0110           0
     24865 MEMB     200      QMPE     H13R     HAL2     0.900000E-01   1.00800           0
     24866 MEMB     200      QMPE     H13S     HAL2     0.900000E-01   1.00800           0
     24867 MEMB     200      QMPE     C214     CTL2    -0.180000       12.0110           0
     24868 MEMB     200      QMPE     H14R     HAL2     0.900000E-01   1.00800           0
     24869 MEMB     200      QMPE     H14S     HAL2     0.900000E-01   1.00800           0
     24870 MEMB     200      QMPE     C215     CTL2    -0.180000       12.0110           0
     24871 MEMB     200      QMPE     H15R     HAL2     0.900000E-01   1.00800           0
     24872 MEMB     200      QMPE     H15S     HAL2     0.900000E-01   1.00800           0
     24873 MEMB     200      QMPE     C216     CTL3    -0.270000       12.0110           0
     24874 MEMB     200      QMPE     H16R     HAL3     0.900000E-01   1.00800           0
     24875 MEMB     200      QMPE     H16S     HAL3     0.900000E-01   1.00800           0
     24876 MEMB     200      QMPE     H16T     HAL3     0.900000E-01   1.00800           0
     24877 MEMB     200      QMPE     C33      CTL2    -0.180000       12.0110           0
     24878 MEMB     200      QMPE     H3X      HAL2     0.900000E-01   1.00800           0
     24879 MEMB     200      QMPE     H3Y      HAL2     0.900000E-01   1.00800           0
     24880 MEMB     200      QMPE     C34      CTL2    -0.180000       12.0110           0
     24881 MEMB     200      QMPE     H4X      HAL2     0.900000E-01   1.00800           0
     24882 MEMB     200      QMPE     H4Y      HAL2     0.900000E-01   1.00800           0
     24883 MEMB     200      QMPE     C35      CTL2    -0.180000       12.0110           0
     24884 MEMB     200      QMPE     H5X      HAL2     0.900000E-01   1.00800           0
     24885 MEMB     200      QMPE     H5Y      HAL2     0.900000E-01   1.00800           0
     24886 MEMB     200      QMPE     C36      CTL2    -0.180000       12.0110           0
     24887 MEMB     200      QMPE     H6X      HAL2     0.900000E-01   1.00800           0
     24888 MEMB     200      QMPE     H6Y      HAL2     0.900000E-01   1.00800           0
     24889 MEMB     200      QMPE     C37      CTL2    -0.180000       12.0110           0
     24890 MEMB     200      QMPE     H7X      HAL2     0.900000E-01   1.00800           0
     24891 MEMB     200      QMPE     H7Y      HAL2     0.900000E-01   1.00800           0
     24892 MEMB     200      QMPE     C38      CTL2    -0.180000       12.0110           0
     24893 MEMB     200      QMPE     H8X      HAL2     0.900000E-01   1.00800           0
     24894 MEMB     200      QMPE     H8Y      HAL2     0.900000E-01   1.00800           0
     24895 MEMB     200      QMPE     C39      CTL2    -0.180000       12.0110           0
     24896 MEMB     200      QMPE     H9X      HAL2     0.900000E-01   1.00800           0
     24897 MEMB     200      QMPE     H9Y      HAL2     0.900000E-01   1.00800           0
     24898 MEMB     200      QMPE     C310     CTL2    -0.180000       12.0110           0
     24899 MEMB     200      QMPE     H10X     HAL2     0.900000E-01   1.00800           0
     24900 MEMB     200      QMPE     H10Y     HAL2     0.900000E-01   1.00800           0
     24901 MEMB     200      QMPE     C311     CTL2    -0.180000       12.0110           0
     24902 MEMB     200      QMPE     H11X     HAL2     0.900000E-01   1.00800           0
     24903 MEMB     200      QMPE     H11Y     HAL2     0.900000E-01   1.00800           0
     24904 MEMB     200      QMPE     C312     CTL2    -0.180000       12.0110           0
     24905 MEMB     200      QMPE     H12X     HAL2     0.900000E-01   1.00800           0
     24906 MEMB     200      QMPE     H12Y     HAL2     0.900000E-01   1.00800           0
     24907 MEMB     200      QMPE     C313     CTL2    -0.180000       12.0110           0
     24908 MEMB     200      QMPE     H13X     HAL2     0.900000E-01   1.00800           0
     24909 MEMB     200      QMPE     H13Y     HAL2     0.900000E-01   1.00800           0
     24910 MEMB     200      QMPE     C314     CTL2    -0.180000       12.0110           0
     24911 MEMB     200      QMPE     H14X     HAL2     0.900000E-01   1.00800           0
     24912 MEMB     200      QMPE     H14Y     HAL2     0.900000E-01   1.00800           0
     24913 MEMB     200      QMPE     C315     CTL3    -0.270000       12.0110           0
     24914 MEMB     200      QMPE     H15X     HAL3     0.900000E-01   1.00800           0
     24915 MEMB     200      QMPE     H15Y     HAL3     0.900000E-01   1.00800           0
     24916 MEMB     200      QMPE     H15Z     HAL3     0.900000E-01   1.00800           0

     24852 !NBOND: bonds
         1         2         1         3         1         4         1         5
         5         6         5         7         5         8         8         9
         8        10         8        15        15        11        11        14
        11        12        11        13        16        17        16        18
        16        19        16        14        19        20        19        27
        19        21        27        28        27        29        27        30
        21        22        22        24        22        23        24        25
        24        26        24        36        36        37        36        38
        36        39        39        40        39        41        39        42
        42        43        42        44        42        45        45        46
        45        47        45        48        48        49        48        50
        48        51        51        52        51        53        51        54
        54        55        54        59        54        56        59        60
        59        61        59        56        61        62        61        63
        61        64        64        65        64        66        64        67
        67        68        67        69        67        70        70        71
        70        72        70        73        73        74        73        75
        73        76        76        77        76        78        76        79
        56        57        56        58        30        31        31        33
        31        32        33        34        33        35        33        80
        80        81        80        82        80        83        83        84
        83        85        83        86        86        87        86        88
        86        89        89        90        89        91        89        92
        92        93        92        94        92        95        95        96
        95        97        95        98        98        99        98       100
        98       101       101       102       101       103       101       104
       104       105       104       106       104       107       107       108
       107       109       107       110       110       111       110       112
       110       113       113       114       113       115       113       116
       116       117       116       118       116       119       119       120
       119       121       119       122       123       124       123       125
       123       126       123       127       127       128       127       129
       127       130       130       131       130       132       130       137
       137       133       133       136       133       134       133       135
       138       139       138       140       138       141       138       136
       141       142       141       149       141       143       149       150
       149       151       149       152       143       144       144       146
       144       145       146       147       146       148       146       158
       158       159       158       160       158       161       161       162
       161       163       161       164       164       165       164       166
       164       167       167       168       167       169       167       170
       170       171       170       172       170       173       173       174
       173       175       173       176       176       177       176       181
       176       178       181       182       181       183       181       178
       183       184       183       185       183       186       186       187
       186       188       186       189       189       190       189       191
       189       192       192       193       192       194       192       195
       195       196       195       197       195       198       198       199
       198       200       198       201       178       179       178       180
       152       153       153       155       153       154       155       156
       155       157       155       202       202       203       202       204
       202       205       205       206       205       207       205       208
       208       209       208       210       208       211       211       212
       211       213       211       214       214       215       214       216
       214       217       217       218       217       219       217       220
       220       221       220       222       220       223       223       224
       223       225       223       226       226       227       226       228
       226       229       229       230       229       231       229       232
       232       233       232       234       232       235       235       236
       235       237       235       238       238       239       238       240
       238       241       241       242       241       243       241       244
       245       246       245       247       245       248       245       249
       249       250       249       251       249       252       252       253
       252       254       252       259       259       255       255       258
       255       256       255       257       260       261       260       262
       260       263       260       258       263       264       263       271
       263       265       271       272       271       273       271       274
       265       266       266       268       266       267       268       269
       268       270       268       280       280       281       280       282
       280       283       283       284       283       285       283       286
       286       287       286       288       286       289       289       290
       289       291       289       292       292       293       292       294
       292       295       295       296       295       297       295       298
       298       299       298       300       300       301       300       302
       302       303       302       304       302       305       305       306
       305       307       305       308       308       309       308       310
       308       311       311       312       311       313       311       314
       314       315       314       316       314       317       317       318
       317       319       317       320       274       275       275       277
       275       276       277       278       277       279       277       321
       321       322       321       323       321       324       324       325
       324       326       324       327       327       328       327       329
       327       330       330       331       330       332       330       333
       333       334       333       335       333       336       336       337
       336       338       336       339       339       340       339       341
       341       342       341       343       343       344       343       345
       343       346       346       347       346       348       346       349
       349       350       349       351       349       352       352       353
       352       354       352       355       355       356       355       357
       355       358       358       359       358       360       358       361
       361       362       361       363       361       364       364       365
       364       366       364       367       368       369       368       370
       368       371       368       372       372       373       372       374
       372       375       375       376       375       377       375       382
       382       378       378       381       378       379       378       380
       383       384       383       385       383       386       383       381
       386       387       386       394       386       388       394       395
       394       396       394       397       388       389       389       391
       389       390       391       392       391       393       391       403
       403       404       403       405       403       406       406       407
       406       408       406       409       409       410       409       411
       409       412       412       413       412       414       412       415
       415       416       415       417       415       418       418       419
       418       420       418       421       421       422       421       426
       421       423       426       427       426       428       426       423
       428       429       428       430       428       431       431       432
       431       433       431       434       434       435       434       436
       434       437       437       438       437       439       437       440
       440       441       440       442       440       443       443       444
       443       445       443       446       423       424       423       425
       397       398       398       400       398       399       400       401
       400       402       400       447       447       448       447       449
       447       450       450       451       450       452       450       453
       453       454       453       455       453       456       456       457
       456       458       456       459       459       460       459       461
       459       462       462       463       462       464       462       465
       465       466       465       467       465       468       468       469
       468       470       468       471       471       472       471       473
       471       474       474       475       474       476       474       477
       477       478       477       479       477       480       480       481
       480       482       480       483       483       484       483       485
       483       486       486       487       486       488       486       489
       494       493       493       490       490       491       490       492
       490       495       498       497       497       495       495       496
       495       499       499       500       499       501       499       506
       506       502       502       505       502       503       502       504
       507       508       507       509       507       510       507       505
       510       511       510       518       510       512       518       519
       518       520       518       521       512       513       513       515
       513       514       515       516       515       517       515       527
       527       528       527       529       527       530       530       531
       530       532       530       533       533       534       533       535
       533       536       536       537       536       538       536       539
       539       540       539       541       539       542       542       543
       542       544       542       545       545       546       545       547
       547       548       547       549       549       550       549       551
       549       552       552       553       552       554       552       555
       555       556       555       557       555       558       558       559
       558       560       558       561       561       562       561       563
       561       564       564       565       564       566       564       567
       521       522       522       524       522       523       524       525
       524       526       524       568       568       569       568       570
       568       571       571       572       571       573       571       574
       574       575       574       576       574       577       577       578
       577       579       577       580       580       581       580       582
       580       583       583       584       583       585       583       586
       586       587       586       588       586       589       589       590
       589       591       589       592       592       593       592       594
       592       595       595       596       595       597       595       598
       598       599       598       600       598       601       601       602
       601       603       601       604       604       605       604       606
       604       607       607       608       607       609       607       610
       611       612       611       613       611       614       611       615
       615       616       615       617       615       618       618       619
       618       620       618       625       625       621       621       624
       621       622       621       623       626       627       626       628
       626       629       626       624       629       630       629       637
       629       631       637       638       637       639       637       640
       631       632       632       634       632       633       634       635
       634       636       634       646       646       647       646       648
       646       649       649       650       649       651       649       652
       652       653       652       654       652       655       655       656
       655       657       655       658       658       659       658       660
       658       661       661       662       661       663       661       664
       664       665       664       669       664       666       669       670
       669       671       669       666       671       672       671       673
       671       674       674       675       674       676       674       677
       677       678       677       679       677       680       680       681
       680       682       680       683       683       684       683       685
       683       686       686       687       686       688       686       689
       666       667       666       668       640       641       641       643
       641       642       643       644       643       645       643       690
       690       691       690       692       690       693       693       694
       693       695       693       696       696       697       696       698
       696       699       699       700       699       701       699       702
       702       703       702       704       702       705       705       706
       705       707       705       708       708       709       708       710
       708       711       711       712       711       713       711       714
       714       715       714       716       714       717       717       718
       717       719       717       720       720       721       720       722
       720       723       723       724       723       725       723       726
       726       727       726       728       726       729       729       730
       729       731       729       732       733       734       733       735
       733       736       733       737       737       738       737       739
       737       740       740       741       740       742       740       747
       747       743       743       746       743       744       743       745
       748       749       748       750       748       751       748       746
       751       752       751       759       751       753       759       760
       759       761       759       762       753       754       754       756
       754       755       756       757       756       758       756       768
       768       769       768       770       768       771       771       772
       771       773       771       774       774       775       774       776
       774       777       777       778       777       779       777       780
       780       781       780       782       780       783       783       784
       783       785       783       786       786       787       786       791
       786       788       791       792       791       793       791       788
       793       794       793       795       793       796       796       797
       796       798       796       799       799       800       799       801
       799       802       802       803       802       804       802       805
       805       806       805       807       805       808       808       809
       808       810       808       811       788       789       788       790
       762       763       763       765       763       764       765       766
       765       767       765       812       812       813       812       814
       812       815       815       816       815       817       815       818
       818       819       818       820       818       821       821       822
       821       823       821       824       824       825       824       826
       824       827       827       828       827       829       827       830
       830       831       830       832       830       833       833       834
       833       835       833       836       836       837       836       838
       836       839       839       840       839       841       839       842
       842       843       842       844       842       845       845       846
       845       847       845       848       848       849       848       850
       848       851       851       852       851       853       851       854
       855       856       855       857       855       858       855       859
       859       860       859       861       859       862       862       863
       862       864       862       869       869       865       865       868
       865       866       865       867       870       871       870       872
       870       873       870       868       873       874       873       881
       873       875       881       882       881       883       881       884
       875       876       876       878       876       877       878       879
       878       880       878       890       890       891       890       892
       890       893       893       894       893       895       893       896
       896       897       896       898       896       899       899       900
       899       901       899       902       902       903       902       904
       902       905       905       906       905       907       905       908
       908       909       908       913       908       910       913       914
       913       915       913       910       915       916       915       917
       915       918       918       919       918       920       918       921
       921       922       921       923       921       924       924       925
       924       926       924       927       927       928       927       929
       927       930       930       931       930       932       930       933
       910       911       910       912       884       885       885       887
       885       886       887       888       887       889       887       934
       934       935       934       936       934       937       937       938
       937       939       937       940       940       941       940       942
       940       943       943       944       943       945       943       946
       946       947       946       948       946       949       949       950
       949       951       949       952       952       953       952       954
       952       955       955       956       955       957       955       958
       958       959       958       960       958       961       961       962
       961       963       961       964       964       965       964       966
       964       967       967       968       967       969       967       970
       970       971       970       972       970       973       973       974
       973       975       973       976       977       978       977       979
       977       980       977       981       981       982       981       983
       981       984       984       985       984       986       984       991
       991       987       987       990       987       988       987       989
       992       993       992       994       992       995       992       990
       995       996       995      1003       995       997      1003      1004
      1003      1005      1003      1006       997       998       998      1000
       998       999      1000      1001      1000      1002      1000      1012
      1012      1013      1012      1014      1012      1015      1015      1016
      1015      1017      1015      1018      1018      1019      1018      1020
      1018      1021      1021      1022      1021      1023      1021      1024
      1024      1025      1024      1026      1024      1027      1027      1028
      1027      1029      1027      1030      1030      1031      1030      1032
      1032      1033      1032      1034      1034      1035      1034      1036
      1034      1037      1037      1038      1037      1039      1037      1040
      1040      1041      1040      1042      1040      1043      1043      1044
      1043      1045      1043      1046      1046      1047      1046      1048
      1046      1049      1049      1050      1049      1051      1049      1052
      1052      1053      1052      1054      1052      1055      1055      1056
      1055      1057      1055      1058      1006      1007      1007      1009
      1007      1008      1009      1010      1009      1011      1009      1059
      1059      1060      1059      1061      1059      1062      1062      1063
      1062      1064      1062      1065      1065      1066      1065      1067
      1065      1068      1068      1069      1068      1070      1068      1071
      1071      1072      1071      1073      1071      1074      1074      1075
      1074      1076      1074      1077      1077      1078      1077      1079
      1077      1080      1080      1081      1080      1082      1080      1083
      1083      1084      1083      1085      1083      1086      1086      1087
      1086      1088      1086      1089      1089      1090      1089      1091
      1089      1092      1092      1093      1092      1094      1092      1095
      1095      1096      1095      1097      1095      1098      1098      1099
      1098      1100      1098      1101      1102      1103      1102      1104
      1102      1105      1102      1106      1106      1107      1106      1108
      1106      1109      1109      1110      1109      1111      1109      1116
      1116      1112      1112      1115      1112      1113      1112      1114
      1117      1118      1117      1119      1117      1120      1117      1115
      1120      1121      1120      1128      1120      1122      1128      1129
      1128      1130      1128      1131      1122      1123      1123      1125
      1123      1124      1125      1126      1125      1127      1125      1137
      1137      1138      1137      1139      1137      1140      1140      1141
      1140      1142      1140      1143      1143      1144      1143      1145
      1143      1146      1146      1147      1146      1148      1146      1149
      1149      1150      1149      1151      1149      1152      1152      1153
      1152      1154      1152      1155      1155      1156      1155      1160
      1155      1157      1160      1161      1160      1162      1160      1157
      1162      1163      1162      1164      1162      1165      1165      1166
      1165      1167      1165      1168      1168      1169      1168      1170
      1168      1171      1171      1172      1171      1173      1171      1174
      1174      1175      1174      1176      1174      1177      1177      1178
      1177      1179      1177      1180      1157      1158      1157      1159
      1131      1132      1132      1134      1132      1133      1134      1135
      1134      1136      1134      1181      1181      1182      1181      1183
      1181      1184      1184      1185      1184      1186      1184      1187
      1187      1188      1187      1189      1187      1190      1190      1191
      1190      1192      1190      1193      1193      1194      1193      1195
      1193      1196      1196      1197      1196      1198      1196      1199
      1199      1200      1199      1201      1199      1202      1202      1203
      1202      1204      1202      1205      1205      1206      1205      1207
      1205      1208      1208      1209      1208      1210      1208      1211
      1211      1212      1211      1213      1211      1214      1214      1215
      1214      1216      1214      1217      1217      1218      1217      1219
      1217      1220      1220      1221      1220      1222      1220      1223
      1224      1225      1224      1226      1224      1227      1224      1228
      1228      1229      1228      1230      1228      1231      1231      1232
      1231      1233      1231      1238      1238      1234      1234      1237
      1234      1235      1234      1236      1239      1240      1239      1241
      1239      1242      1239      1237      1242      1243      1242      1250
      1242      1244      1250      1251      1250      1252      1250      1253
      1244      1245      1245      1247      1245      1246      1247      1248
      1247      1249      1247      1259      1259      1260      1259      1261
      1259      1262      1262      1263      1262      1264      1262      1265
      1265      1266      1265      1267      1265      1268      1268      1269
      1268      1270      1268      1271      1271      1272      1271      1273
      1271      1274      1274      1275      1274      1276      1274      1277
      1277      1278      1277      1279      1279      1280      1279      1281
      1281      1282      1281      1283      1281      1284      1284      1285
      1284      1286      1284      1287      1287      1288      1287      1289
      1287      1290      1290      1291      1290      1292      1290      1293
      1293      1294      1293      1295      1293      1296      1296      1297
      1296      1298      1296      1299      1299      1300      1299      1301
      1299      1302      1302      1303      1302      1304      1302      1305
      1253      1254      1254      1256      1254      1255      1256      1257
      1256      1258      1256      1306      1306      1307      1306      1308
      1306      1309      1309      1310      1309      1311      1309      1312
      1312      1313      1312      1314      1312      1315      1315      1316
      1315      1317      1315      1318      1318      1319      1318      1320
      1318      1321      1321      1322      1321      1323      1321      1324
      1324      1325      1324      1326      1324      1327      1327      1328
      1327      1329      1327      1330      1330      1331      1330      1332
      1330      1333      1333      1334      1333      1335      1333      1336
      1336      1337      1336      1338      1336      1339      1339      1340
      1339      1341      1339      1342      1342      1343      1342      1344
      1342      1345      1345      1346      1345      1347      1345      1348
      1349      1350      1349      1351      1349      1352      1349      1353
      1353      1354      1353      1355      1353      1356      1356      1357
      1356      1358      1356      1363      1363      1359      1359      1362
      1359      1360      1359      1361      1364      1365      1364      1366
      1364      1367      1364      1362      1367      1368      1367      1375
      1367      1369      1375      1376      1375      1377      1375      1378
      1369      1370      1370      1372      1370      1371      1372      1373
      1372      1374      1372      1384      1384      1385      1384      1386
      1384      1387      1387      1388      1387      1389      1387      1390
      1390      1391      1390      1392      1390      1393      1393      1394
      1393      1395      1393      1396      1396      1397      1396      1398
      1396      1399      1399      1400      1399      1401      1399      1402
      1402      1403      1402      1407      1402      1404      1407      1408
      1407      1409      1407      1404      1409      1410      1409      1411
      1409      1412      1412      1413      1412      1414      1412      1415
      1415      1416      1415      1417      1415      1418      1418      1419
      1418      1420      1418      1421      1421      1422      1421      1423
      1421      1424      1424      1425      1424      1426      1424      1427
      1404      1405      1404      1406      1378      1379      1379      1381
      1379      1380      1381      1382      1381      1383      1381      1428
      1428      1429      1428      1430      1428      1431      1431      1432
      1431      1433      1431      1434      1434      1435      1434      1436
      1434      1437      1437      1438      1437      1439      1437      1440
      1440      1441      1440      1442      1440      1443      1443      1444
      1443      1445      1443      1446      1446      1447      1446      1448
      1446      1449      1449      1450      1449      1451      1449      1452
      1452      1453      1452      1454      1452      1455      1455      1456
      1455      1457      1455      1458      1458      1459      1458      1460
      1458      1461      1461      1462      1461      1463      1461      1464
      1464      1465      1464      1466      1464      1467      1467      1468
      1467      1469      1467      1470      1475      1474      1474      1471
      1471      1472      1471      1473      1471      1476      1479      1478
      1478      1476      1476      1477      1476      1480      1480      1481
      1480      1482      1480      1487      1487      1483      1483      1486
      1483      1484      1483      1485      1488      1489      1488      1490
      1488      1491      1488      1486      1491      1492      1491      1499
      1491      1493      1499      1500      1499      1501      1499      1502
      1493      1494      1494      1496      1494      1495      1496      1497
      1496      1498      1496      1508      1508      1509      1508      1510
      1508      1511      1511      1512      1511      1513      1511      1514
      1514      1515      1514      1516      1514      1517      1517      1518
      1517      1519      1517      1520      1520      1521      1520      1522
      1520      1523      1523      1524      1523      1525      1523      1526
      1526      1527      1526      1531      1526      1528      1531      1532
      1531      1533      1531      1528      1533      1534      1533      1535
      1533      1536      1536      1537      1536      1538      1536      1539
      1539      1540      1539      1541      1539      1542      1542      1543
      1542      1544      1542      1545      1545      1546      1545      1547
      1545      1548      1548      1549      1548      1550      1548      1551
      1528      1529      1528      1530      1502      1503      1503      1505
      1503      1504      1505      1506      1505      1507      1505      1552
      1552      1553      1552      1554      1552      1555      1555      1556
      1555      1557      1555      1558      1558      1559      1558      1560
      1558      1561      1561      1562      1561      1563      1561      1564
      1564      1565      1564      1566      1564      1567      1567      1568
      1567      1569      1567      1570      1570      1571      1570      1572
      1570      1573      1573      1574      1573      1575      1573      1576
      1576      1577      1576      1578      1576      1579      1579      1580
      1579      1581      1579      1582      1582      1583      1582      1584
      1582      1585      1585      1586      1585      1587      1585      1588
      1588      1589      1588      1590      1588      1591      1591      1592
      1591      1593      1591      1594      1595      1596      1595      1597
      1595      1598      1595      1599      1599      1600      1599      1601
      1599      1602      1602      1603      1602      1604      1602      1609
      1609      1605      1605      1608      1605      1606      1605      1607
      1610      1611      1610      1612      1610      1613      1610      1608
      1613      1614      1613      1621      1613      1615      1621      1622
      1621      1623      1621      1624      1615      1616      1616      1618
      1616      1617      1618      1619      1618      1620      1618      1630
      1630      1631      1630      1632      1630      1633      1633      1634
      1633      1635      1633      1636      1636      1637      1636      1638
      1636      1639      1639      1640      1639      1641      1639      1642
      1642      1643      1642      1644      1642      1645      1645      1646
      1645      1647      1645      1648      1648      1649      1648      1653
      1648      1650      1653      1654      1653      1655      1653      1650
      1655      1656      1655      1657      1655      1658      1658      1659
      1658      1660      1658      1661      1661      1662      1661      1663
      1661      1664      1664      1665      1664      1666      1664      1667
      1667      1668      1667      1669      1667      1670      1670      1671
      1670      1672      1670      1673      1650      1651      1650      1652
      1624      1625      1625      1627      1625      1626      1627      1628
      1627      1629      1627      1674      1674      1675      1674      1676
      1674      1677      1677      1678      1677      1679      1677      1680
      1680      1681      1680      1682      1680      1683      1683      1684
      1683      1685      1683      1686      1686      1687      1686      1688
      1686      1689      1689      1690      1689      1691      1689      1692
      1692      1693      1692      1694      1692      1695      1695      1696
      1695      1697      1695      1698      1698      1699      1698      1700
      1698      1701      1701      1702      1701      1703      1701      1704
      1704      1705      1704      1706      1704      1707      1707      1708
      1707      1709      1707      1710      1710      1711      1710      1712
      1710      1713      1713      1714      1713      1715      1713      1716
      1717      1718      1717      1719      1717      1720      1717      1721
      1721      1722      1721      1723      1721      1724      1724      1725
      1724      1726      1724      1731      1731      1727      1727      1730
      1727      1728      1727      1729      1732      1733      1732      1734
      1732      1735      1732      1730      1735      1736      1735      1743
      1735      1737      1743      1744      1743      1745      1743      1746
      1737      1738      1738      1740      1738      1739      1740      1741
      1740      1742      1740      1752      1752      1753      1752      1754
      1752      1755      1755      1756      1755      1757      1755      1758
      1758      1759      1758      1760      1758      1761      1761      1762
      1761      1763      1761      1764      1764      1765      1764      1766
      1764      1767      1767      1768      1767      1769      1767      1770
      1770      1771      1770      1775      1770      1772      1775      1776
      1775      1777      1775      1772      1777      1778      1777      1779
      1777      1780      1780      1781      1780      1782      1780      1783
      1783      1784      1783      1785      1783      1786      1786      1787
      1786      1788      1786      1789      1789      1790      1789      1791
      1789      1792      1792      1793      1792      1794      1792      1795
      1772      1773      1772      1774      1746      1747      1747      1749
      1747      1748      1749      1750      1749      1751      1749      1796
      1796      1797      1796      1798      1796      1799      1799      1800
      1799      1801      1799      1802      1802      1803      1802      1804
      1802      1805      1805      1806      1805      1807      1805      1808
      1808      1809      1808      1810      1808      1811      1811      1812
      1811      1813      1811      1814      1814      1815      1814      1816
      1814      1817      1817      1818      1817      1819      1817      1820
      1820      1821      1820      1822      1820      1823      1823      1824
      1823      1825      1823      1826      1826      1827      1826      1828
      1826      1829      1829      1830      1829      1831      1829      1832
      1832      1833      1832      1834      1832      1835      1835      1836
      1835      1837      1835      1838      1839      1840      1839      1841
      1839      1842      1839      1843      1843      1844      1843      1845
      1843      1846      1846      1847      1846      1848      1846      1853
      1853      1849      1849      1852      1849      1850      1849      1851
      1854      1855      1854      1856      1854      1857      1854      1852
      1857      1858      1857      1865      1857      1859      1865      1866
      1865      1867      1865      1868      1859      1860      1860      1862
      1860      1861      1862      1863      1862      1864      1862      1874
      1874      1875      1874      1876      1874      1877      1877      1878
      1877      1879      1877      1880      1880      1881      1880      1882
      1880      1883      1883      1884      1883      1885      1883      1886
      1886      1887      1886      1888      1886      1889      1889      1890
      1889      1891      1889      1892      1892      1893      1892      1897
      1892      1894      1897      1898      1897      1899      1897      1894
      1899      1900      1899      1901      1899      1902      1902      1903
      1902      1904      1902      1905      1905      1906      1905      1907
      1905      1908      1908      1909      1908      1910      1908      1911
      1911      1912      1911      1913      1911      1914      1914      1915
      1914      1916      1914      1917      1894      1895      1894      1896
      1868      1869      1869      1871      1869      1870      1871      1872
      1871      1873      1871      1918      1918      1919      1918      1920
      1918      1921      1921      1922      1921      1923      1921      1924
      1924      1925      1924      1926      1924      1927      1927      1928
      1927      1929      1927      1930      1930      1931      1930      1932
      1930      1933      1933      1934      1933      1935      1933      1936
      1936      1937      1936      1938      1936      1939      1939      1940
      1939      1941      1939      1942      1942      1943      1942      1944
      1942      1945      1945      1946      1945      1947      1945      1948
      1948      1949      1948      1950      1948      1951      1951      1952
      1951      1953      1951      1954      1954      1955      1954      1956
      1954      1957      1957      1958      1957      1959      1957      1960
      1961      1962      1961      1963      1961      1964      1961      1965
      1965      1966      1965      1967      1965      1968      1968      1969
      1968      1970      1968      1975      1975      1971      1971      1974
      1971      1972      1971      1973      1976      1977      1976      1978
      1976      1979      1976      1974      1979      1980      1979      1987
      1979      1981      1987      1988      1987      1989      1987      1990
      1981      1982      1982      1984      1982      1983      1984      1985
      1984      1986      1984      1996      1996      1997      1996      1998
      1996      1999      1999      2000      1999      2001      1999      2002
      2002      2003      2002      2004      2002      2005      2005      2006
      2005      2007      2005      2008      2008      2009      2008      2010
      2008      2011      2011      2012      2011      2013      2011      2014
      2014      2015      2014      2019      2014      2016      2019      2020
      2019      2021      2019      2016      2021      2022      2021      2023
      2021      2024      2024      2025      2024      2026      2024      2027
      2027      2028      2027      2029      2027      2030      2030      2031
      2030      2032      2030      2033      2033      2034      2033      2035
      2033      2036      2036      2037      2036      2038      2036      2039
      2016      2017      2016      2018      1990      1991      1991      1993
      1991      1992      1993      1994      1993      1995      1993      2040
      2040      2041      2040      2042      2040      2043      2043      2044
      2043      2045      2043      2046      2046      2047      2046      2048
      2046      2049      2049      2050      2049      2051      2049      2052
      2052      2053      2052      2054      2052      2055      2055      2056
      2055      2057      2055      2058      2058      2059      2058      2060
      2058      2061      2061      2062      2061      2063      2061      2064
      2064      2065      2064      2066      2064      2067      2067      2068
      2067      2069      2067      2070      2070      2071      2070      2072
      2070      2073      2073      2074      2073      2075      2073      2076
      2076      2077      2076      2078      2076      2079      2079      2080
      2079      2081      2079      2082      2087      2086      2086      2083
      2083      2084      2083      2085      2083      2088      2091      2090
      2090      2088      2088      2089      2088      2092      2092      2093
      2092      2094      2092      2099      2099      2095      2095      2098
      2095      2096      2095      2097      2100      2101      2100      2102
      2100      2103      2100      2098      2103      2104      2103      2111
      2103      2105      2111      2112      2111      2113      2111      2114
      2105      2106      2106      2108      2106      2107      2108      2109
      2108      2110      2108      2120      2120      2121      2120      2122
      2120      2123      2123      2124      2123      2125      2123      2126
      2126      2127      2126      2128      2126      2129      2129      2130
      2129      2131      2129      2132      2132      2133      2132      2134
      2132      2135      2135      2136      2135      2137      2135      2138
      2138      2139      2138      2140      2140      2141      2140      2142
      2142      2143      2142      2144      2142      2145      2145      2146
      2145      2147      2145      2148      2148      2149      2148      2150
      2148      2151      2151      2152      2151      2153      2151      2154
      2154      2155      2154      2156      2154      2157      2157      2158
      2157      2159      2157      2160      2114      2115      2115      2117
      2115      2116      2117      2118      2117      2119      2117      2161
      2161      2162      2161      2163      2161      2164      2164      2165
      2164      2166      2164      2167      2167      2168      2167      2169
      2167      2170      2170      2171      2170      2172      2170      2173
      2173      2174      2173      2175      2173      2176      2176      2177
      2176      2178      2176      2179      2179      2180      2179      2181
      2179      2182      2182      2183      2182      2184      2182      2185
      2185      2186      2185      2187      2185      2188      2188      2189
      2188      2190      2188      2191      2191      2192      2191      2193
      2191      2194      2194      2195      2194      2196      2194      2197
      2197      2198      2197      2199      2197      2200      2200      2201
      2200      2202      2200      2203      2204      2205      2204      2206
      2204      2207      2204      2208      2208      2209      2208      2210
      2208      2211      2211      2212      2211      2213      2211      2218
      2218      2214      2214      2217      2214      2215      2214      2216
      2219      2220      2219      2221      2219      2222      2219      2217
      2222      2223      2222      2230      2222      2224      2230      2231
      2230      2232      2230      2233      2224      2225      2225      2227
      2225      2226      2227      2228      2227      2229      2227      2239
      2239      2240      2239      2241      2239      2242      2242      2243
      2242      2244      2242      2245      2245      2246      2245      2247
      2245      2248      2248      2249      2248      2250      2248      2251
      2251      2252      2251      2253      2251      2254      2254      2255
      2254      2256      2254      2257      2257      2258      2257      2262
      2257      2259      2262      2263      2262      2264      2262      2259
      2264      2265      2264      2266      2264      2267      2267      2268
      2267      2269      2267      2270      2270      2271      2270      2272
      2270      2273      2273      2274      2273      2275      2273      2276
      2276      2277      2276      2278      2276      2279      2279      2280
      2279      2281      2279      2282      2259      2260      2259      2261
      2233      2234      2234      2236      2234      2235      2236      2237
      2236      2238      2236      2283      2283      2284      2283      2285
      2283      2286      2286      2287      2286      2288      2286      2289
      2289      2290      2289      2291      2289      2292      2292      2293
      2292      2294      2292      2295      2295      2296      2295      2297
      2295      2298      2298      2299      2298      2300      2298      2301
      2301      2302      2301      2303      2301      2304      2304      2305
      2304      2306      2304      2307      2307      2308      2307      2309
      2307      2310      2310      2311      2310      2312      2310      2313
      2313      2314      2313      2315      2313      2316      2316      2317
      2316      2318      2316      2319      2319      2320      2319      2321
      2319      2322      2322      2323      2322      2324      2322      2325
      2326      2327      2326      2328      2326      2329      2326      2330
      2330      2331      2330      2332      2330      2333      2333      2334
      2333      2335      2333      2340      2340      2336      2336      2339
      2336      2337      2336      2338      2341      2342      2341      2343
      2341      2344      2341      2339      2344      2345      2344      2352
      2344      2346      2352      2353      2352      2354      2352      2355
      2346      2347      2347      2349      2347      2348      2349      2350
      2349      2351      2349      2361      2361      2362      2361      2363
      2361      2364      2364      2365      2364      2366      2364      2367
      2367      2368      2367      2369      2367      2370      2370      2371
      2370      2372      2370      2373      2373      2374      2373      2375
      2373      2376      2376      2377      2376      2378      2376      2379
      2379      2380      2379      2381      2381      2382      2381      2383
      2383      2384      2383      2385      2383      2386      2386      2387
      2386      2388      2386      2389      2389      2390      2389      2391
      2389      2392      2392      2393      2392      2394      2392      2395
      2395      2396      2395      2397      2395      2398      2398      2399
      2398      2400      2398      2401      2401      2402      2401      2403
      2401      2404      2404      2405      2404      2406      2404      2407
      2355      2356      2356      2358      2356      2357      2358      2359
      2358      2360      2358      2408      2408      2409      2408      2410
      2408      2411      2411      2412      2411      2413      2411      2414
      2414      2415      2414      2416      2414      2417      2417      2418
      2417      2419      2417      2420      2420      2421      2420      2422
      2420      2423      2423      2424      2423      2425      2423      2426
      2426      2427      2426      2428      2426      2429      2429      2430
      2429      2431      2429      2432      2432      2433      2432      2434
      2432      2435      2435      2436      2435      2437      2435      2438
      2438      2439      2438      2440      2438      2441      2441      2442
      2441      2443      2441      2444      2444      2445      2444      2446
      2444      2447      2447      2448      2447      2449      2447      2450
      2451      2452      2451      2453      2451      2454      2451      2455
      2455      2456      2455      2457      2455      2458      2458      2459
      2458      2460      2458      2465      2465      2461      2461      2464
      2461      2462      2461      2463      2466      2467      2466      2468
      2466      2469      2466      2464      2469      2470      2469      2477
      2469      2471      2477      2478      2477      2479      2477      2480
      2471      2472      2472      2474      2472      2473      2474      2475
      2474      2476      2474      2486      2486      2487      2486      2488
      2486      2489      2489      2490      2489      2491      2489      2492
      2492      2493      2492      2494      2492      2495      2495      2496
      2495      2497      2495      2498      2498      2499      2498      2500
      2498      2501      2501      2502      2501      2503      2501      2504
      2504      2505      2504      2509      2504      2506      2509      2510
      2509      2511      2509      2506      2511      2512      2511      2513
      2511      2514      2514      2515      2514      2516      2514      2517
      2517      2518      2517      2519      2517      2520      2520      2521
      2520      2522      2520      2523      2523      2524      2523      2525
      2523      2526      2526      2527      2526      2528      2526      2529
      2506      2507      2506      2508      2480      2481      2481      2483
      2481      2482      2483      2484      2483      2485      2483      2530
      2530      2531      2530      2532      2530      2533      2533      2534
      2533      2535      2533      2536      2536      2537      2536      2538
      2536      2539      2539      2540      2539      2541      2539      2542
      2542      2543      2542      2544      2542      2545      2545      2546
      2545      2547      2545      2548      2548      2549      2548      2550
      2548      2551      2551      2552      2551      2553      2551      2554
      2554      2555      2554      2556      2554      2557      2557      2558
      2557      2559      2557      2560      2560      2561      2560      2562
      2560      2563      2563      2564      2563      2565      2563      2566
      2566      2567      2566      2568      2566      2569      2569      2570
      2569      2571      2569      2572      2573      2574      2573      2575
      2573      2576      2573      2577      2577      2578      2577      2579
      2577      2580      2580      2581      2580      2582      2580      2587
      2587      2583      2583      2586      2583      2584      2583      2585
      2588      2589      2588      2590      2588      2591      2588      2586
      2591      2592      2591      2599      2591      2593      2599      2600
      2599      2601      2599      2602      2593      2594      2594      2596
      2594      2595      2596      2597      2596      2598      2596      2608
      2608      2609      2608      2610      2608      2611      2611      2612
      2611      2613      2611      2614      2614      2615      2614      2616
      2614      2617      2617      2618      2617      2619      2617      2620
      2620      2621      2620      2622      2620      2623      2623      2624
      2623      2625      2623      2626      2626      2627      2626      2631
      2626      2628      2631      2632      2631      2633      2631      2628
      2633      2634      2633      2635      2633      2636      2636      2637
      2636      2638      2636      2639      2639      2640      2639      2641
      2639      2642      2642      2643      2642      2644      2642      2645
      2645      2646      2645      2647      2645      2648      2648      2649
      2648      2650      2648      2651      2628      2629      2628      2630
      2602      2603      2603      2605      2603      2604      2605      2606
      2605      2607      2605      2652      2652      2653      2652      2654
      2652      2655      2655      2656      2655      2657      2655      2658
      2658      2659      2658      2660      2658      2661      2661      2662
      2661      2663      2661      2664      2664      2665      2664      2666
      2664      2667      2667      2668      2667      2669      2667      2670
      2670      2671      2670      2672      2670      2673      2673      2674
      2673      2675      2673      2676      2676      2677      2676      2678
      2676      2679      2679      2680      2679      2681      2679      2682
      2682      2683      2682      2684      2682      2685      2685      2686
      2685      2687      2685      2688      2688      2689      2688      2690
      2688      2691      2692      2693      2692      2694      2692      2695
      2692      2696      2696      2697      2696      2698      2696      2699
      2699      2700      2699      2701      2699      2706      2706      2702
      2702      2705      2702      2703      2702      2704      2707      2708
      2707      2709      2707      2710      2707      2705      2710      2711
      2710      2718      2710      2712      2718      2719      2718      2720
      2718      2721      2712      2713      2713      2715      2713      2714
      2715      2716      2715      2717      2715      2727      2727      2728
      2727      2729      2727      2730      2730      2731      2730      2732
      2730      2733      2733      2734      2733      2735      2733      2736
      2736      2737      2736      2738      2736      2739      2739      2740
      2739      2741      2739      2742      2742      2743      2742      2744
      2742      2745      2745      2746      2745      2750      2745      2747
      2750      2751      2750      2752      2750      2747      2752      2753
      2752      2754      2752      2755      2755      2756      2755      2757
      2755      2758      2758      2759      2758      2760      2758      2761
      2761      2762      2761      2763      2761      2764      2764      2765
      2764      2766      2764      2767      2767      2768      2767      2769
      2767      2770      2747      2748      2747      2749      2721      2722
      2722      2724      2722      2723      2724      2725      2724      2726
      2724      2771      2771      2772      2771      2773      2771      2774
      2774      2775      2774      2776      2774      2777      2777      2778
      2777      2779      2777      2780      2780      2781      2780      2782
      2780      2783      2783      2784      2783      2785      2783      2786
      2786      2787      2786      2788      2786      2789      2789      2790
      2789      2791      2789      2792      2792      2793      2792      2794
      2792      2795      2795      2796      2795      2797      2795      2798
      2798      2799      2798      2800      2798      2801      2801      2802
      2801      2803      2801      2804      2804      2805      2804      2806
      2804      2807      2807      2808      2807      2809      2807      2810
      2815      2814      2814      2811      2811      2812      2811      2813
      2811      2816      2819      2818      2818      2816      2816      2817
      2816      2820      2820      2821      2820      2822      2820      2827
      2827      2823      2823      2826      2823      2824      2823      2825
      2828      2829      2828      2830      2828      2831      2828      2826
      2831      2832      2831      2839      2831      2833      2839      2840
      2839      2841      2839      2842      2833      2834      2834      2836
      2834      2835      2836      2837      2836      2838      2836      2848
      2848      2849      2848      2850      2848      2851      2851      2852
      2851      2853      2851      2854      2854      2855      2854      2856
      2854      2857      2857      2858      2857      2859      2857      2860
      2860      2861      2860      2862      2860      2863      2863      2864
      2863      2865      2863      2866      2866      2867      2866      2868
      2868      2869      2868      2870      2870      2871      2870      2872
      2870      2873      2873      2874      2873      2875      2873      2876
      2876      2877      2876      2878      2876      2879      2879      2880
      2879      2881      2879      2882      2882      2883      2882      2884
      2882      2885      2885      2886      2885      2887      2885      2888
      2842      2843      2843      2845      2843      2844      2845      2846
      2845      2847      2845      2889      2889      2890      2889      2891
      2889      2892      2892      2893      2892      2894      2892      2895
      2895      2896      2895      2897      2895      2898      2898      2899
      2898      2900      2898      2901      2901      2902      2901      2903
      2901      2904      2904      2905      2904      2906      2904      2907
      2907      2908      2907      2909      2907      2910      2910      2911
      2910      2912      2910      2913      2913      2914      2913      2915
      2913      2916      2916      2917      2916      2918      2916      2919
      2919      2920      2919      2921      2919      2922      2922      2923
      2922      2924      2922      2925      2925      2926      2925      2927
      2925      2928      2928      2929      2928      2930      2928      2931
      2932      2933      2932      2934      2932      2935      2932      2936
      2936      2937      2936      2938      2936      2939      2939      2940
      2939      2941      2939      2946      2946      2942      2942      2945
      2942      2943      2942      2944      2947      2948      2947      2949
      2947      2950      2947      2945      2950      2951      2950      2958
      2950      2952      2958      2959      2958      2960      2958      2961
      2952      2953      2953      2955      2953      2954      2955      2956
      2955      2957      2955      2967      2967      2968      2967      2969
      2967      2970      2970      2971      2970      2972      2970      2973
      2973      2974      2973      2975      2973      2976      2976      2977
      2976      2978      2976      2979      2979      2980      2979      2981
      2979      2982      2982      2983      2982      2984      2982      2985
      2985      2986      2985      2990      2985      2987      2990      2991
      2990      2992      2990      2987      2992      2993      2992      2994
      2992      2995      2995      2996      2995      2997      2995      2998
      2998      2999      2998      3000      2998      3001      3001      3002
      3001      3003      3001      3004      3004      3005      3004      3006
      3004      3007      3007      3008      3007      3009      3007      3010
      2987      2988      2987      2989      2961      2962      2962      2964
      2962      2963      2964      2965      2964      2966      2964      3011
      3011      3012      3011      3013      3011      3014      3014      3015
      3014      3016      3014      3017      3017      3018      3017      3019
      3017      3020      3020      3021      3020      3022      3020      3023
      3023      3024      3023      3025      3023      3026      3026      3027
      3026      3028      3026      3029      3029      3030      3029      3031
      3029      3032      3032      3033      3032      3034      3032      3035
      3035      3036      3035      3037      3035      3038      3038      3039
      3038      3040      3038      3041      3041      3042      3041      3043
      3041      3044      3044      3045      3044      3046      3044      3047
      3047      3048      3047      3049      3047      3050      3050      3051
      3050      3052      3050      3053      3058      3057      3057      3054
      3054      3055      3054      3056      3054      3059      3062      3061
      3061      3059      3059      3060      3059      3063      3063      3064
      3063      3065      3063      3070      3070      3066      3066      3069
      3066      3067      3066      3068      3071      3072      3071      3073
      3071      3074      3071      3069      3074      3075      3074      3082
      3074      3076      3082      3083      3082      3084      3082      3085
      3076      3077      3077      3079      3077      3078      3079      3080
      3079      3081      3079      3091      3091      3092      3091      3093
      3091      3094      3094      3095      3094      3096      3094      3097
      3097      3098      3097      3099      3097      3100      3100      3101
      3100      3102      3100      3103      3103      3104      3103      3105
      3103      3106      3106      3107      3106      3108      3106      3109
      3109      3110      3109      3114      3109      3111      3114      3115
      3114      3116      3114      3111      3116      3117      3116      3118
      3116      3119      3119      3120      3119      3121      3119      3122
      3122      3123      3122      3124      3122      3125      3125      3126
      3125      3127      3125      3128      3128      3129      3128      3130
      3128      3131      3131      3132      3131      3133      3131      3134
      3111      3112      3111      3113      3085      3086      3086      3088
      3086      3087      3088      3089      3088      3090      3088      3135
      3135      3136      3135      3137      3135      3138      3138      3139
      3138      3140      3138      3141      3141      3142      3141      3143
      3141      3144      3144      3145      3144      3146      3144      3147
      3147      3148      3147      3149      3147      3150      3150      3151
      3150      3152      3150      3153      3153      3154      3153      3155
      3153      3156      3156      3157      3156      3158      3156      3159
      3159      3160      3159      3161      3159      3162      3162      3163
      3162      3164      3162      3165      3165      3166      3165      3167
      3165      3168      3168      3169      3168      3170      3168      3171
      3171      3172      3171      3173      3171      3174      3174      3175
      3174      3176      3174      3177      3182      3181      3181      3178
      3178      3179      3178      3180      3178      3183      3186      3185
      3185      3183      3183      3184      3183      3187      3187      3188
      3187      3189      3187      3194      3194      3190      3190      3193
      3190      3191      3190      3192      3195      3196      3195      3197
      3195      3198      3195      3193      3198      3199      3198      3206
      3198      3200      3206      3207      3206      3208      3206      3209
      3200      3201      3201      3203      3201      3202      3203      3204
      3203      3205      3203      3215      3215      3216      3215      3217
      3215      3218      3218      3219      3218      3220      3218      3221
      3221      3222      3221      3223      3221      3224      3224      3225
      3224      3226      3224      3227      3227      3228      3227      3229
      3227      3230      3230      3231      3230      3232      3230      3233
      3233      3234      3233      3238      3233      3235      3238      3239
      3238      3240      3238      3235      3240      3241      3240      3242
      3240      3243      3243      3244      3243      3245      3243      3246
      3246      3247      3246      3248      3246      3249      3249      3250
      3249      3251      3249      3252      3252      3253      3252      3254
      3252      3255      3255      3256      3255      3257      3255      3258
      3235      3236      3235      3237      3209      3210      3210      3212
      3210      3211      3212      3213      3212      3214      3212      3259
      3259      3260      3259      3261      3259      3262      3262      3263
      3262      3264      3262      3265      3265      3266      3265      3267
      3265      3268      3268      3269      3268      3270      3268      3271
      3271      3272      3271      3273      3271      3274      3274      3275
      3274      3276      3274      3277      3277      3278      3277      3279
      3277      3280      3280      3281      3280      3282      3280      3283
      3283      3284      3283      3285      3283      3286      3286      3287
      3286      3288      3286      3289      3289      3290      3289      3291
      3289      3292      3292      3293      3292      3294      3292      3295
      3295      3296      3295      3297      3295      3298      3298      3299
      3298      3300      3298      3301      3306      3305      3305      3302
      3302      3303      3302      3304      3302      3307      3310      3309
      3309      3307      3307      3308      3307      3311      3311      3312
      3311      3313      3311      3318      3318      3314      3314      3317
      3314      3315      3314      3316      3319      3320      3319      3321
      3319      3322      3319      3317      3322      3323      3322      3330
      3322      3324      3330      3331      3330      3332      3330      3333
      3324      3325      3325      3327      3325      3326      3327      3328
      3327      3329      3327      3339      3339      3340      3339      3341
      3339      3342      3342      3343      3342      3344      3342      3345
      3345      3346      3345      3347      3345      3348      3348      3349
      3348      3350      3348      3351      3351      3352      3351      3353
      3351      3354      3354      3355      3354      3356      3354      3357
      3357      3358      3357      3359      3359      3360      3359      3361
      3361      3362      3361      3363      3361      3364      3364      3365
      3364      3366      3364      3367      3367      3368      3367      3369
      3367      3370      3370      3371      3370      3372      3370      3373
      3373      3374      3373      3375      3373      3376      3376      3377
      3376      3378      3376      3379      3333      3334      3334      3336
      3334      3335      3336      3337      3336      3338      3336      3380
      3380      3381      3380      3382      3380      3383      3383      3384
      3383      3385      3383      3386      3386      3387      3386      3388
      3386      3389      3389      3390      3389      3391      3389      3392
      3392      3393      3392      3394      3392      3395      3395      3396
      3395      3397      3395      3398      3398      3399      3398      3400
      3398      3401      3401      3402      3401      3403      3401      3404
      3404      3405      3404      3406      3404      3407      3407      3408
      3407      3409      3407      3410      3410      3411      3410      3412
      3410      3413      3413      3414      3413      3415      3413      3416
      3416      3417      3416      3418      3416      3419      3419      3420
      3419      3421      3419      3422      3423      3424      3423      3425
      3423      3426      3423      3427      3427      3428      3427      3429
      3427      3430      3430      3431      3430      3432      3430      3437
      3437      3433      3433      3436      3433      3434      3433      3435
      3438      3439      3438      3440      3438      3441      3438      3436
      3441      3442      3441      3449      3441      3443      3449      3450
      3449      3451      3449      3452      3443      3444      3444      3446
      3444      3445      3446      3447      3446      3448      3446      3458
      3458      3459      3458      3460      3458      3461      3461      3462
      3461      3463      3461      3464      3464      3465      3464      3466
      3464      3467      3467      3468      3467      3469      3467      3470
      3470      3471      3470      3472      3470      3473      3473      3474
      3473      3475      3473      3476      3476      3477      3476      3481
      3476      3478      3481      3482      3481      3483      3481      3478
      3483      3484      3483      3485      3483      3486      3486      3487
      3486      3488      3486      3489      3489      3490      3489      3491
      3489      3492      3492      3493      3492      3494      3492      3495
      3495      3496      3495      3497      3495      3498      3498      3499
      3498      3500      3498      3501      3478      3479      3478      3480
      3452      3453      3453      3455      3453      3454      3455      3456
      3455      3457      3455      3502      3502      3503      3502      3504
      3502      3505      3505      3506      3505      3507      3505      3508
      3508      3509      3508      3510      3508      3511      3511      3512
      3511      3513      3511      3514      3514      3515      3514      3516
      3514      3517      3517      3518      3517      3519      3517      3520
      3520      3521      3520      3522      3520      3523      3523      3524
      3523      3525      3523      3526      3526      3527      3526      3528
      3526      3529      3529      3530      3529      3531      3529      3532
      3532      3533      3532      3534      3532      3535      3535      3536
      3535      3537      3535      3538      3538      3539      3538      3540
      3538      3541      3541      3542      3541      3543      3541      3544
      3545      3546      3545      3547      3545      3548      3545      3549
      3549      3550      3549      3551      3549      3552      3552      3553
      3552      3554      3552      3559      3559      3555      3555      3558
      3555      3556      3555      3557      3560      3561      3560      3562
      3560      3563      3560      3558      3563      3564      3563      3571
      3563      3565      3571      3572      3571      3573      3571      3574
      3565      3566      3566      3568      3566      3567      3568      3569
      3568      3570      3568      3580      3580      3581      3580      3582
      3580      3583      3583      3584      3583      3585      3583      3586
      3586      3587      3586      3588      3586      3589      3589      3590
      3589      3591      3589      3592      3592      3593      3592      3594
      3592      3595      3595      3596      3595      3597      3595      3598
      3598      3599      3598      3600      3600      3601      3600      3602
      3602      3603      3602      3604      3602      3605      3605      3606
      3605      3607      3605      3608      3608      3609      3608      3610
      3608      3611      3611      3612      3611      3613      3611      3614
      3614      3615      3614      3616      3614      3617      3617      3618
      3617      3619      3617      3620      3620      3621      3620      3622
      3620      3623      3623      3624      3623      3625      3623      3626
      3574      3575      3575      3577      3575      3576      3577      3578
      3577      3579      3577      3627      3627      3628      3627      3629
      3627      3630      3630      3631      3630      3632      3630      3633
      3633      3634      3633      3635      3633      3636      3636      3637
      3636      3638      3636      3639      3639      3640      3639      3641
      3639      3642      3642      3643      3642      3644      3642      3645
      3645      3646      3645      3647      3645      3648      3648      3649
      3648      3650      3648      3651      3651      3652      3651      3653
      3651      3654      3654      3655      3654      3656      3654      3657
      3657      3658      3657      3659      3657      3660      3660      3661
      3660      3662      3660      3663      3663      3664      3663      3665
      3663      3666      3666      3667      3666      3668      3666      3669
      3670      3671      3670      3672      3670      3673      3670      3674
      3674      3675      3674      3676      3674      3677      3677      3678
      3677      3679      3677      3684      3684      3680      3680      3683
      3680      3681      3680      3682      3685      3686      3685      3687
      3685      3688      3685      3683      3688      3689      3688      3696
      3688      3690      3696      3697      3696      3698      3696      3699
      3690      3691      3691      3693      3691      3692      3693      3694
      3693      3695      3693      3705      3705      3706      3705      3707
      3705      3708      3708      3709      3708      3710      3708      3711
      3711      3712      3711      3713      3711      3714      3714      3715
      3714      3716      3714      3717      3717      3718      3717      3719
      3717      3720      3720      3721      3720      3722      3720      3723
      3723      3724      3723      3725      3725      3726      3725      3727
      3727      3728      3727      3729      3727      3730      3730      3731
      3730      3732      3730      3733      3733      3734      3733      3735
      3733      3736      3736      3737      3736      3738      3736      3739
      3739      3740      3739      3741      3739      3742      3742      3743
      3742      3744      3742      3745      3745      3746      3745      3747
      3745      3748      3748      3749      3748      3750      3748      3751
      3699      3700      3700      3702      3700      3701      3702      3703
      3702      3704      3702      3752      3752      3753      3752      3754
      3752      3755      3755      3756      3755      3757      3755      3758
      3758      3759      3758      3760      3758      3761      3761      3762
      3761      3763      3761      3764      3764      3765      3764      3766
      3764      3767      3767      3768      3767      3769      3767      3770
      3770      3771      3770      3772      3770      3773      3773      3774
      3773      3775      3773      3776      3776      3777      3776      3778
      3776      3779      3779      3780      3779      3781      3779      3782
      3782      3783      3782      3784      3782      3785      3785      3786
      3785      3787      3785      3788      3788      3789      3788      3790
      3788      3791      3791      3792      3791      3793      3791      3794
      3799      3798      3798      3795      3795      3796      3795      3797
      3795      3800      3803      3802      3802      3800      3800      3801
      3800      3804      3804      3805      3804      3806      3804      3811
      3811      3807      3807      3810      3807      3808      3807      3809
      3812      3813      3812      3814      3812      3815      3812      3810
      3815      3816      3815      3823      3815      3817      3823      3824
      3823      3825      3823      3826      3817      3818      3818      3820
      3818      3819      3820      3821      3820      3822      3820      3832
      3832      3833      3832      3834      3832      3835      3835      3836
      3835      3837      3835      3838      3838      3839      3838      3840
      3838      3841      3841      3842      3841      3843      3841      3844
      3844      3845      3844      3846      3844      3847      3847      3848
      3847      3849      3847      3850      3850      3851      3850      3852
      3852      3853      3852      3854      3854      3855      3854      3856
      3854      3857      3857      3858      3857      3859      3857      3860
      3860      3861      3860      3862      3860      3863      3863      3864
      3863      3865      3863      3866      3866      3867      3866      3868
      3866      3869      3869      3870      3869      3871      3869      3872
      3826      3827      3827      3829      3827      3828      3829      3830
      3829      3831      3829      3873      3873      3874      3873      3875
      3873      3876      3876      3877      3876      3878      3876      3879
      3879      3880      3879      3881      3879      3882      3882      3883
      3882      3884      3882      3885      3885      3886      3885      3887
      3885      3888      3888      3889      3888      3890      3888      3891
      3891      3892      3891      3893      3891      3894      3894      3895
      3894      3896      3894      3897      3897      3898      3897      3899
      3897      3900      3900      3901      3900      3902      3900      3903
      3903      3904      3903      3905      3903      3906      3906      3907
      3906      3908      3906      3909      3909      3910      3909      3911
      3909      3912      3912      3913      3912      3914      3912      3915
      3916      3917      3916      3918      3916      3919      3916      3920
      3920      3921      3920      3922      3920      3923      3923      3924
      3923      3925      3923      3930      3930      3926      3926      3929
      3926      3927      3926      3928      3931      3932      3931      3933
      3931      3934      3931      3929      3934      3935      3934      3942
      3934      3936      3942      3943      3942      3944      3942      3945
      3936      3937      3937      3939      3937      3938      3939      3940
      3939      3941      3939      3951      3951      3952      3951      3953
      3951      3954      3954      3955      3954      3956      3954      3957
      3957      3958      3957      3959      3957      3960      3960      3961
      3960      3962      3960      3963      3963      3964      3963      3965
      3963      3966      3966      3967      3966      3968      3966      3969
      3969      3970      3969      3974      3969      3971      3974      3975
      3974      3976      3974      3971      3976      3977      3976      3978
      3976      3979      3979      3980      3979      3981      3979      3982
      3982      3983      3982      3984      3982      3985      3985      3986
      3985      3987      3985      3988      3988      3989      3988      3990
      3988      3991      3991      3992      3991      3993      3991      3994
      3971      3972      3971      3973      3945      3946      3946      3948
      3946      3947      3948      3949      3948      3950      3948      3995
      3995      3996      3995      3997      3995      3998      3998      3999
      3998      4000      3998      4001      4001      4002      4001      4003
      4001      4004      4004      4005      4004      4006      4004      4007
      4007      4008      4007      4009      4007      4010      4010      4011
      4010      4012      4010      4013      4013      4014      4013      4015
      4013      4016      4016      4017      4016      4018      4016      4019
      4019      4020      4019      4021      4019      4022      4022      4023
      4022      4024      4022      4025      4025      4026      4025      4027
      4025      4028      4028      4029      4028      4030      4028      4031
      4031      4032      4031      4033      4031      4034      4034      4035
      4034      4036      4034      4037      4042      4041      4041      4038
      4038      4039      4038      4040      4038      4043      4046      4045
      4045      4043      4043      4044      4043      4047      4047      4048
      4047      4049      4047      4054      4054      4050      4050      4053
      4050      4051      4050      4052      4055      4056      4055      4057
      4055      4058      4055      4053      4058      4059      4058      4066
      4058      4060      4066      4067      4066      4068      4066      4069
      4060      4061      4061      4063      4061      4062      4063      4064
      4063      4065      4063      4075      4075      4076      4075      4077
      4075      4078      4078      4079      4078      4080      4078      4081
      4081      4082      4081      4083      4081      4084      4084      4085
      4084      4086      4084      4087      4087      4088      4087      4089
      4087      4090      4090      4091      4090      4092      4090      4093
      4093      4094      4093      4095      4095      4096      4095      4097
      4097      4098      4097      4099      4097      4100      4100      4101
      4100      4102      4100      4103      4103      4104      4103      4105
      4103      4106      4106      4107      4106      4108      4106      4109
      4109      4110      4109      4111      4109      4112      4112      4113
      4112      4114      4112      4115      4069      4070      4070      4072
      4070      4071      4072      4073      4072      4074      4072      4116
      4116      4117      4116      4118      4116      4119      4119      4120
      4119      4121      4119      4122      4122      4123      4122      4124
      4122      4125      4125      4126      4125      4127      4125      4128
      4128      4129      4128      4130      4128      4131      4131      4132
      4131      4133      4131      4134      4134      4135      4134      4136
      4134      4137      4137      4138      4137      4139      4137      4140
      4140      4141      4140      4142      4140      4143      4143      4144
      4143      4145      4143      4146      4146      4147      4146      4148
      4146      4149      4149      4150      4149      4151      4149      4152
      4152      4153      4152      4154      4152      4155      4155      4156
      4155      4157      4155      4158      4159      4160      4159      4161
      4159      4162      4159      4163      4163      4164      4163      4165
      4163      4166      4166      4167      4166      4168      4166      4173
      4173      4169      4169      4172      4169      4170      4169      4171
      4174      4175      4174      4176      4174      4177      4174      4172
      4177      4178      4177      4185      4177      4179      4185      4186
      4185      4187      4185      4188      4179      4180      4180      4182
      4180      4181      4182      4183      4182      4184      4182      4194
      4194      4195      4194      4196      4194      4197      4197      4198
      4197      4199      4197      4200      4200      4201      4200      4202
      4200      4203      4203      4204      4203      4205      4203      4206
      4206      4207      4206      4208      4206      4209      4209      4210
      4209      4211      4209      4212      4212      4213      4212      4217
      4212      4214      4217      4218      4217      4219      4217      4214
      4219      4220      4219      4221      4219      4222      4222      4223
      4222      4224      4222      4225      4225      4226      4225      4227
      4225      4228      4228      4229      4228      4230      4228      4231
      4231      4232      4231      4233      4231      4234      4234      4235
      4234      4236      4234      4237      4214      4215      4214      4216
      4188      4189      4189      4191      4189      4190      4191      4192
      4191      4193      4191      4238      4238      4239      4238      4240
      4238      4241      4241      4242      4241      4243      4241      4244
      4244      4245      4244      4246      4244      4247      4247      4248
      4247      4249      4247      4250      4250      4251      4250      4252
      4250      4253      4253      4254      4253      4255      4253      4256
      4256      4257      4256      4258      4256      4259      4259      4260
      4259      4261      4259      4262      4262      4263      4262      4264
      4262      4265      4265      4266      4265      4267      4265      4268
      4268      4269      4268      4270      4268      4271      4271      4272
      4271      4273      4271      4274      4274      4275      4274      4276
      4274      4277      4277      4278      4277      4279      4277      4280
      4281      4282      4281      4283      4281      4284      4281      4285
      4285      4286      4285      4287      4285      4288      4288      4289
      4288      4290      4288      4295      4295      4291      4291      4294
      4291      4292      4291      4293      4296      4297      4296      4298
      4296      4299      4296      4294      4299      4300      4299      4307
      4299      4301      4307      4308      4307      4309      4307      4310
      4301      4302      4302      4304      4302      4303      4304      4305
      4304      4306      4304      4316      4316      4317      4316      4318
      4316      4319      4319      4320      4319      4321      4319      4322
      4322      4323      4322      4324      4322      4325      4325      4326
      4325      4327      4325      4328      4328      4329      4328      4330
      4328      4331      4331      4332      4331      4333      4331      4334
      4334      4335      4334      4336      4336      4337      4336      4338
      4338      4339      4338      4340      4338      4341      4341      4342
      4341      4343      4341      4344      4344      4345      4344      4346
      4344      4347      4347      4348      4347      4349      4347      4350
      4350      4351      4350      4352      4350      4353      4353      4354
      4353      4355      4353      4356      4310      4311      4311      4313
      4311      4312      4313      4314      4313      4315      4313      4357
      4357      4358      4357      4359      4357      4360      4360      4361
      4360      4362      4360      4363      4363      4364      4363      4365
      4363      4366      4366      4367      4366      4368      4366      4369
      4369      4370      4369      4371      4369      4372      4372      4373
      4372      4374      4372      4375      4375      4376      4375      4377
      4377      4378      4377      4379      4379      4380      4379      4381
      4379      4382      4382      4383      4382      4384      4382      4385
      4385      4386      4385      4387      4385      4388      4388      4389
      4388      4390      4388      4391      4391      4392      4391      4393
      4391      4394      4394      4395      4394      4396      4394      4397
      4397      4398      4397      4399      4397      4400      4400      4401
      4400      4402      4400      4403      4404      4405      4404      4406
      4404      4407      4404      4408      4408      4409      4408      4410
      4408      4411      4411      4412      4411      4413      4411      4418
      4418      4414      4414      4417      4414      4415      4414      4416
      4419      4420      4419      4421      4419      4422      4419      4417
      4422      4423      4422      4430      4422      4424      4430      4431
      4430      4432      4430      4433      4424      4425      4425      4427
      4425      4426      4427      4428      4427      4429      4427      4439
      4439      4440      4439      4441      4439      4442      4442      4443
      4442      4444      4442      4445      4445      4446      4445      4447
      4445      4448      4448      4449      4448      4450      4448      4451
      4451      4452      4451      4453      4451      4454      4454      4455
      4454      4456      4454      4457      4457      4458      4457      4462
      4457      4459      4462      4463      4462      4464      4462      4459
      4464      4465      4464      4466      4464      4467      4467      4468
      4467      4469      4467      4470      4470      4471      4470      4472
      4470      4473      4473      4474      4473      4475      4473      4476
      4476      4477      4476      4478      4476      4479      4479      4480
      4479      4481      4479      4482      4459      4460      4459      4461
      4433      4434      4434      4436      4434      4435      4436      4437
      4436      4438      4436      4483      4483      4484      4483      4485
      4483      4486      4486      4487      4486      4488      4486      4489
      4489      4490      4489      4491      4489      4492      4492      4493
      4492      4494      4492      4495      4495      4496      4495      4497
      4495      4498      4498      4499      4498      4500      4498      4501
      4501      4502      4501      4503      4501      4504      4504      4505
      4504      4506      4504      4507      4507      4508      4507      4509
      4507      4510      4510      4511      4510      4512      4510      4513
      4513      4514      4513      4515      4513      4516      4516      4517
      4516      4518      4516      4519      4519      4520      4519      4521
      4519      4522      4522      4523      4522      4524      4522      4525
      4526      4527      4526      4528      4526      4529      4526      4530
      4530      4531      4530      4532      4530      4533      4533      4534
      4533      4535      4533      4540      4540      4536      4536      4539
      4536      4537      4536      4538      4541      4542      4541      4543
      4541      4544      4541      4539      4544      4545      4544      4552
      4544      4546      4552      4553      4552      4554      4552      4555
      4546      4547      4547      4549      4547      4548      4549      4550
      4549      4551      4549      4561      4561      4562      4561      4563
      4561      4564      4564      4565      4564      4566      4564      4567
      4567      4568      4567      4569      4567      4570      4570      4571
      4570      4572      4570      4573      4573      4574      4573      4575
      4573      4576      4576      4577      4576      4578      4576      4579
      4579      4580      4579      4581      4581      4582      4581      4583
      4583      4584      4583      4585      4583      4586      4586      4587
      4586      4588      4586      4589      4589      4590      4589      4591
      4589      4592      4592      4593      4592      4594      4592      4595
      4595      4596      4595      4597      4595      4598      4598      4599
      4598      4600      4598      4601      4555      4556      4556      4558
      4556      4557      4558      4559      4558      4560      4558      4602
      4602      4603      4602      4604      4602      4605      4605      4606
      4605      4607      4605      4608      4608      4609      4608      4610
      4608      4611      4611      4612      4611      4613      4611      4614
      4614      4615      4614      4616      4614      4617      4617      4618
      4617      4619      4617      4620      4620      4621      4620      4622
      4622      4623      4622      4624      4624      4625      4624      4626
      4624      4627      4627      4628      4627      4629      4627      4630
      4630      4631      4630      4632      4630      4633      4633      4634
      4633      4635      4633      4636      4636      4637      4636      4638
      4636      4639      4639      4640      4639      4641      4639      4642
      4642      4643      4642      4644      4642      4645      4645      4646
      4645      4647      4645      4648      4649      4650      4649      4651
      4649      4652      4649      4653      4653      4654      4653      4655
      4653      4656      4656      4657      4656      4658      4656      4663
      4663      4659      4659      4662      4659      4660      4659      4661
      4664      4665      4664      4666      4664      4667      4664      4662
      4667      4668      4667      4675      4667      4669      4675      4676
      4675      4677      4675      4678      4669      4670      4670      4672
      4670      4671      4672      4673      4672      4674      4672      4684
      4684      4685      4684      4686      4684      4687      4687      4688
      4687      4689      4687      4690      4690      4691      4690      4692
      4690      4693      4693      4694      4693      4695      4693      4696
      4696      4697      4696      4698      4696      4699      4699      4700
      4699      4701      4699      4702      4702      4703      4702      4707
      4702      4704      4707      4708      4707      4709      4707      4704
      4709      4710      4709      4711      4709      4712      4712      4713
      4712      4714      4712      4715      4715      4716      4715      4717
      4715      4718      4718      4719      4718      4720      4718      4721
      4721      4722      4721      4723      4721      4724      4724      4725
      4724      4726      4724      4727      4704      4705      4704      4706
      4678      4679      4679      4681      4679      4680      4681      4682
      4681      4683      4681      4728      4728      4729      4728      4730
      4728      4731      4731      4732      4731      4733      4731      4734
      4734      4735      4734      4736      4734      4737      4737      4738
      4737      4739      4737      4740      4740      4741      4740      4742
      4740      4743      4743      4744      4743      4745      4743      4746
      4746      4747      4746      4748      4746      4749      4749      4750
      4749      4751      4749      4752      4752      4753      4752      4754
      4752      4755      4755      4756      4755      4757      4755      4758
      4758      4759      4758      4760      4758      4761      4761      4762
      4761      4763      4761      4764      4764      4765      4764      4766
      4764      4767      4767      4768      4767      4769      4767      4770
      4771      4772      4771      4773      4771      4774      4771      4775
      4775      4776      4775      4777      4775      4778      4778      4779
      4778      4780      4778      4785      4785      4781      4781      4784
      4781      4782      4781      4783      4786      4787      4786      4788
      4786      4789      4786      4784      4789      4790      4789      4797
      4789      4791      4797      4798      4797      4799      4797      4800
      4791      4792      4792      4794      4792      4793      4794      4795
      4794      4796      4794      4806      4806      4807      4806      4808
      4806      4809      4809      4810      4809      4811      4809      4812
      4812      4813      4812      4814      4812      4815      4815      4816
      4815      4817      4815      4818      4818      4819      4818      4820
      4818      4821      4821      4822      4821      4823      4821      4824
      4824      4825      4824      4829      4824      4826      4829      4830
      4829      4831      4829      4826      4831      4832      4831      4833
      4831      4834      4834      4835      4834      4836      4834      4837
      4837      4838      4837      4839      4837      4840      4840      4841
      4840      4842      4840      4843      4843      4844      4843      4845
      4843      4846      4846      4847      4846      4848      4846      4849
      4826      4827      4826      4828      4800      4801      4801      4803
      4801      4802      4803      4804      4803      4805      4803      4850
      4850      4851      4850      4852      4850      4853      4853      4854
      4853      4855      4853      4856      4856      4857      4856      4858
      4856      4859      4859      4860      4859      4861      4859      4862
      4862      4863      4862      4864      4862      4865      4865      4866
      4865      4867      4865      4868      4868      4869      4868      4870
      4868      4871      4871      4872      4871      4873      4871      4874
      4874      4875      4874      4876      4874      4877      4877      4878
      4877      4879      4877      4880      4880      4881      4880      4882
      4880      4883      4883      4884      4883      4885      4883      4886
      4886      4887      4886      4888      4886      4889      4889      4890
      4889      4891      4889      4892      4893      4894      4893      4895
      4893      4896      4893      4897      4897      4898      4897      4899
      4897      4900      4900      4901      4900      4902      4900      4907
      4907      4903      4903      4906      4903      4904      4903      4905
      4908      4909      4908      4910      4908      4911      4908      4906
      4911      4912      4911      4919      4911      4913      4919      4920
      4919      4921      4919      4922      4913      4914      4914      4916
      4914      4915      4916      4917      4916      4918      4916      4928
      4928      4929      4928      4930      4928      4931      4931      4932
      4931      4933      4931      4934      4934      4935      4934      4936
      4934      4937      4937      4938      4937      4939      4937      4940
      4940      4941      4940      4942      4940      4943      4943      4944
      4943      4945      4943      4946      4946      4947      4946      4951
      4946      4948      4951      4952      4951      4953      4951      4948
      4953      4954      4953      4955      4953      4956      4956      4957
      4956      4958      4956      4959      4959      4960      4959      4961
      4959      4962      4962      4963      4962      4964      4962      4965
      4965      4966      4965      4967      4965      4968      4968      4969
      4968      4970      4968      4971      4948      4949      4948      4950
      4922      4923      4923      4925      4923      4924      4925      4926
      4925      4927      4925      4972      4972      4973      4972      4974
      4972      4975      4975      4976      4975      4977      4975      4978
      4978      4979      4978      4980      4978      4981      4981      4982
      4981      4983      4981      4984      4984      4985      4984      4986
      4984      4987      4987      4988      4987      4989      4987      4990
      4990      4991      4990      4992      4990      4993      4993      4994
      4993      4995      4993      4996      4996      4997      4996      4998
      4996      4999      4999      5000      4999      5001      4999      5002
      5002      5003      5002      5004      5002      5005      5005      5006
      5005      5007      5005      5008      5008      5009      5008      5010
      5008      5011      5011      5012      5011      5013      5011      5014
      5030      5026      5030      5031      5030      5032      5026      5028
      5026      5027      5028      5029      5026      5015      5015      5016
      5015      5017      5030      5036      5015      5021      5033      5036
      5033      5037      5033      5034      5033      5035      5018      5021
      5018      5022      5018      5019      5018      5020      5037      5038
      5038      5039      5038      5040      5038      5041      5041      5042
      5041      5043      5041      5049      5049      5050      5049      5051
      5049      5052      5022      5023      5023      5024      5023      5025
      5023      5058      5058      5059      5058      5060      5058      5066
      5066      5067      5066      5068      5066      5069      5043      5044
      5052      5053      5060      5061      5069      5070      5044      5045
      5044      5046      5046      5047      5046      5048      5046      5075
      5075      5076      5075      5077      5075      5078      5078      5079
      5078      5080      5078      5081      5081      5082      5081      5083
      5081      5084      5084      5085      5084      5086      5084      5087
      5087      5088      5087      5089      5087      5090      5090      5091
      5090      5092      5090      5093      5093      5094      5093      5095
      5093      5096      5096      5097      5096      5098      5096      5099
      5099      5100      5099      5101      5101      5102      5101      5103
      5103      5104      5103      5105      5103      5106      5106      5107
      5106      5108      5106      5109      5109      5110      5109      5111
      5109      5112      5112      5113      5112      5114      5112      5115
      5115      5116      5115      5117      5115      5118      5118      5119
      5118      5120      5118      5121      5053      5054      5053      5055
      5055      5056      5055      5057      5055      5122      5122      5123
      5122      5124      5122      5125      5125      5126      5125      5127
      5125      5128      5128      5129      5128      5130      5128      5131
      5131      5132      5131      5133      5131      5134      5134      5135
      5134      5136      5134      5137      5137      5138      5137      5139
      5137      5140      5140      5141      5140      5142      5140      5143
      5143      5144      5143      5145      5143      5146      5146      5147
      5146      5148      5146      5149      5149      5150      5149      5151
      5149      5152      5152      5153      5152      5154      5152      5155
      5155      5156      5155      5157      5155      5158      5158      5159
      5158      5160      5158      5161      5161      5162      5161      5163
      5161      5164      5061      5062      5061      5063      5063      5064
      5063      5065      5063      5165      5165      5166      5165      5167
      5165      5168      5168      5169      5168      5170      5168      5171
      5171      5172      5171      5173      5171      5174      5174      5175
      5174      5176      5174      5177      5177      5178      5177      5179
      5177      5180      5180      5181      5180      5182      5180      5183
      5183      5184      5183      5185      5183      5186      5186      5187
      5186      5188      5186      5189      5189      5190      5189      5191
      5191      5192      5191      5193      5193      5194      5193      5195
      5193      5196      5196      5197      5196      5198      5196      5199
      5199      5200      5199      5201      5199      5202      5202      5203
      5202      5204      5202      5205      5205      5206      5205      5207
      5205      5208      5208      5209      5208      5210      5208      5211
      5070      5071      5070      5072      5072      5073      5072      5074
      5072      5212      5212      5213      5212      5214      5212      5215
      5215      5216      5215      5217      5215      5218      5218      5219
      5218      5220      5218      5221      5221      5222      5221      5223
      5221      5224      5224      5225      5224      5226      5224      5227
      5227      5228      5227      5229      5227      5230      5230      5231
      5230      5232      5230      5233      5233      5234      5233      5235
      5233      5236      5236      5237      5236      5238      5236      5239
      5239      5240      5239      5241      5239      5242      5242      5243
      5242      5244      5242      5245      5245      5246      5245      5247
      5245      5248      5248      5249      5248      5250      5248      5251
      5251      5252      5251      5253      5251      5254      5255      5256
      5255      5257      5255      5258      5255      5259      5259      5260
      5259      5261      5259      5262      5262      5263      5262      5264
      5262      5269      5269      5265      5265      5268      5265      5266
      5265      5267      5270      5271      5270      5272      5270      5273
      5270      5268      5273      5274      5273      5281      5273      5275
      5281      5282      5281      5283      5281      5284      5275      5276
      5276      5278      5276      5277      5278      5279      5278      5280
      5278      5290      5290      5291      5290      5292      5290      5293
      5293      5294      5293      5295      5293      5296      5296      5297
      5296      5298      5296      5299      5299      5300      5299      5301
      5299      5302      5302      5303      5302      5304      5302      5305
      5305      5306      5305      5307      5305      5308      5308      5309
      5308      5313      5308      5310      5313      5314      5313      5315
      5313      5310      5315      5316      5315      5317      5315      5318
      5318      5319      5318      5320      5318      5321      5321      5322
      5321      5323      5321      5324      5324      5325      5324      5326
      5324      5327      5327      5328      5327      5329      5327      5330
      5330      5331      5330      5332      5330      5333      5310      5311
      5310      5312      5284      5285      5285      5287      5285      5286
      5287      5288      5287      5289      5287      5334      5334      5335
      5334      5336      5334      5337      5337      5338      5337      5339
      5337      5340      5340      5341      5340      5342      5340      5343
      5343      5344      5343      5345      5343      5346      5346      5347
      5346      5348      5346      5349      5349      5350      5349      5351
      5349      5352      5352      5353      5352      5354      5352      5355
      5355      5356      5355      5357      5355      5358      5358      5359
      5358      5360      5358      5361      5361      5362      5361      5363
      5361      5364      5364      5365      5364      5366      5364      5367
      5367      5368      5367      5369      5367      5370      5370      5371
      5370      5372      5370      5373      5373      5374      5373      5375
      5373      5376      5377      5378      5377      5379      5377      5380
      5377      5381      5381      5382      5381      5383      5381      5384
      5384      5385      5384      5386      5384      5391      5391      5387
      5387      5390      5387      5388      5387      5389      5392      5393
      5392      5394      5392      5395      5392      5390      5395      5396
      5395      5403      5395      5397      5403      5404      5403      5405
      5403      5406      5397      5398      5398      5400      5398      5399
      5400      5401      5400      5402      5400      5412      5412      5413
      5412      5414      5412      5415      5415      5416      5415      5417
      5415      5418      5418      5419      5418      5420      5418      5421
      5421      5422      5421      5423      5421      5424      5424      5425
      5424      5426      5424      5427      5427      5428      5427      5429
      5427      5430      5430      5431      5430      5435      5430      5432
      5435      5436      5435      5437      5435      5432      5437      5438
      5437      5439      5437      5440      5440      5441      5440      5442
      5440      5443      5443      5444      5443      5445      5443      5446
      5446      5447      5446      5448      5446      5449      5449      5450
      5449      5451      5449      5452      5452      5453      5452      5454
      5452      5455      5432      5433      5432      5434      5406      5407
      5407      5409      5407      5408      5409      5410      5409      5411
      5409      5456      5456      5457      5456      5458      5456      5459
      5459      5460      5459      5461      5459      5462      5462      5463
      5462      5464      5462      5465      5465      5466      5465      5467
      5465      5468      5468      5469      5468      5470      5468      5471
      5471      5472      5471      5473      5471      5474      5474      5475
      5474      5476      5474      5477      5477      5478      5477      5479
      5477      5480      5480      5481      5480      5482      5480      5483
      5483      5484      5483      5485      5483      5486      5486      5487
      5486      5488      5486      5489      5489      5490      5489      5491
      5489      5492      5492      5493      5492      5494      5492      5495
      5495      5496      5495      5497      5495      5498      5499      5500
      5499      5501      5499      5502      5499      5503      5503      5504
      5503      5505      5503      5506      5506      5507      5506      5508
      5506      5513      5513      5509      5509      5512      5509      5510
      5509      5511      5514      5515      5514      5516      5514      5517
      5514      5512      5517      5518      5517      5525      5517      5519
      5525      5526      5525      5527      5525      5528      5519      5520
      5520      5522      5520      5521      5522      5523      5522      5524
      5522      5534      5534      5535      5534      5536      5534      5537
      5537      5538      5537      5539      5537      5540      5540      5541
      5540      5542      5540      5543      5543      5544      5543      5545
      5543      5546      5546      5547      5546      5548      5546      5549
      5549      5550      5549      5551      5549      5552      5552      5553
      5552      5557      5552      5554      5557      5558      5557      5559
      5557      5554      5559      5560      5559      5561      5559      5562
      5562      5563      5562      5564      5562      5565      5565      5566
      5565      5567      5565      5568      5568      5569      5568      5570
      5568      5571      5571      5572      5571      5573      5571      5574
      5574      5575      5574      5576      5574      5577      5554      5555
      5554      5556      5528      5529      5529      5531      5529      5530
      5531      5532      5531      5533      5531      5578      5578      5579
      5578      5580      5578      5581      5581      5582      5581      5583
      5581      5584      5584      5585      5584      5586      5584      5587
      5587      5588      5587      5589      5587      5590      5590      5591
      5590      5592      5590      5593      5593      5594      5593      5595
      5593      5596      5596      5597      5596      5598      5596      5599
      5599      5600      5599      5601      5599      5602      5602      5603
      5602      5604      5602      5605      5605      5606      5605      5607
      5605      5608      5608      5609      5608      5610      5608      5611
      5611      5612      5611      5613      5611      5614      5614      5615
      5614      5616      5614      5617      5617      5618      5617      5619
      5617      5620      5621      5622      5621      5623      5621      5624
      5621      5625      5625      5626      5625      5627      5625      5628
      5628      5629      5628      5630      5628      5635      5635      5631
      5631      5634      5631      5632      5631      5633      5636      5637
      5636      5638      5636      5639      5636      5634      5639      5640
      5639      5647      5639      5641      5647      5648      5647      5649
      5647      5650      5641      5642      5642      5644      5642      5643
      5644      5645      5644      5646      5644      5656      5656      5657
      5656      5658      5656      5659      5659      5660      5659      5661
      5659      5662      5662      5663      5662      5664      5662      5665
      5665      5666      5665      5667      5665      5668      5668      5669
      5668      5670      5668      5671      5671      5672      5671      5673
      5671      5674      5674      5675      5674      5676      5676      5677
      5676      5678      5678      5679      5678      5680      5678      5681
      5681      5682      5681      5683      5681      5684      5684      5685
      5684      5686      5684      5687      5687      5688      5687      5689
      5687      5690      5690      5691      5690      5692      5690      5693
      5693      5694      5693      5695      5693      5696      5696      5697
      5696      5698      5696      5699      5699      5700      5699      5701
      5699      5702      5650      5651      5651      5653      5651      5652
      5653      5654      5653      5655      5653      5703      5703      5704
      5703      5705      5703      5706      5706      5707      5706      5708
      5706      5709      5709      5710      5709      5711      5709      5712
      5712      5713      5712      5714      5712      5715      5715      5716
      5715      5717      5715      5718      5718      5719      5718      5720
      5718      5721      5721      5722      5721      5723      5721      5724
      5724      5725      5724      5726      5724      5727      5727      5728
      5727      5729      5727      5730      5730      5731      5730      5732
      5730      5733      5733      5734      5733      5735      5733      5736
      5736      5737      5736      5738      5736      5739      5739      5740
      5739      5741      5739      5742      5742      5743      5742      5744
      5742      5745      5746      5747      5746      5748      5746      5749
      5746      5750      5750      5751      5750      5752      5750      5753
      5753      5754      5753      5755      5753      5760      5760      5756
      5756      5759      5756      5757      5756      5758      5761      5762
      5761      5763      5761      5764      5761      5759      5764      5765
      5764      5772      5764      5766      5772      5773      5772      5774
      5772      5775      5766      5767      5767      5769      5767      5768
      5769      5770      5769      5771      5769      5781      5781      5782
      5781      5783      5781      5784      5784      5785      5784      5786
      5784      5787      5787      5788      5787      5789      5787      5790
      5790      5791      5790      5792      5790      5793      5793      5794
      5793      5795      5793      5796      5796      5797      5796      5798
      5796      5799      5799      5800      5799      5804      5799      5801
      5804      5805      5804      5806      5804      5801      5806      5807
      5806      5808      5806      5809      5809      5810      5809      5811
      5809      5812      5812      5813      5812      5814      5812      5815
      5815      5816      5815      5817      5815      5818      5818      5819
      5818      5820      5818      5821      5821      5822      5821      5823
      5821      5824      5801      5802      5801      5803      5775      5776
      5776      5778      5776      5777      5778      5779      5778      5780
      5778      5825      5825      5826      5825      5827      5825      5828
      5828      5829      5828      5830      5828      5831      5831      5832
      5831      5833      5831      5834      5834      5835      5834      5836
      5834      5837      5837      5838      5837      5839      5837      5840
      5840      5841      5840      5842      5840      5843      5843      5844
      5843      5845      5843      5846      5846      5847      5846      5848
      5846      5849      5849      5850      5849      5851      5849      5852
      5852      5853      5852      5854      5852      5855      5855      5856
      5855      5857      5855      5858      5858      5859      5858      5860
      5858      5861      5861      5862      5861      5863      5861      5864
      5865      5866      5865      5867      5865      5868      5865      5869
      5869      5870      5869      5871      5869      5872      5872      5873
      5872      5874      5872      5879      5879      5875      5875      5878
      5875      5876      5875      5877      5880      5881      5880      5882
      5880      5883      5880      5878      5883      5884      5883      5891
      5883      5885      5891      5892      5891      5893      5891      5894
      5885      5886      5886      5888      5886      5887      5888      5889
      5888      5890      5888      5900      5900      5901      5900      5902
      5900      5903      5903      5904      5903      5905      5903      5906
      5906      5907      5906      5908      5906      5909      5909      5910
      5909      5911      5909      5912      5912      5913      5912      5914
      5912      5915      5915      5916      5915      5917      5915      5918
      5918      5919      5918      5923      5918      5920      5923      5924
      5923      5925      5923      5920      5925      5926      5925      5927
      5925      5928      5928      5929      5928      5930      5928      5931
      5931      5932      5931      5933      5931      5934      5934      5935
      5934      5936      5934      5937      5937      5938      5937      5939
      5937      5940      5940      5941      5940      5942      5940      5943
      5920      5921      5920      5922      5894      5895      5895      5897
      5895      5896      5897      5898      5897      5899      5897      5944
      5944      5945      5944      5946      5944      5947      5947      5948
      5947      5949      5947      5950      5950      5951      5950      5952
      5950      5953      5953      5954      5953      5955      5953      5956
      5956      5957      5956      5958      5956      5959      5959      5960
      5959      5961      5959      5962      5962      5963      5962      5964
      5962      5965      5965      5966      5965      5967      5965      5968
      5968      5969      5968      5970      5968      5971      5971      5972
      5971      5973      5971      5974      5974      5975      5974      5976
      5974      5977      5977      5978      5977      5979      5977      5980
      5980      5981      5980      5982      5980      5983      5983      5984
      5983      5985      5983      5986      5987      5988      5987      5989
      5987      5990      5987      5991      5991      5992      5991      5993
      5991      5994      5994      5995      5994      5996      5994      6001
      6001      5997      5997      6000      5997      5998      5997      5999
      6002      6003      6002      6004      6002      6005      6002      6000
      6005      6006      6005      6013      6005      6007      6013      6014
      6013      6015      6013      6016      6007      6008      6008      6010
      6008      6009      6010      6011      6010      6012      6010      6022
      6022      6023      6022      6024      6022      6025      6025      6026
      6025      6027      6025      6028      6028      6029      6028      6030
      6028      6031      6031      6032      6031      6033      6031      6034
      6034      6035      6034      6036      6034      6037      6037      6038
      6037      6039      6037      6040      6040      6041      6040      6045
      6040      6042      6045      6046      6045      6047      6045      6042
      6047      6048      6047      6049      6047      6050      6050      6051
      6050      6052      6050      6053      6053      6054      6053      6055
      6053      6056      6056      6057      6056      6058      6056      6059
      6059      6060      6059      6061      6059      6062      6062      6063
      6062      6064      6062      6065      6042      6043      6042      6044
      6016      6017      6017      6019      6017      6018      6019      6020
      6019      6021      6019      6066      6066      6067      6066      6068
      6066      6069      6069      6070      6069      6071      6069      6072
      6072      6073      6072      6074      6072      6075      6075      6076
      6075      6077      6075      6078      6078      6079      6078      6080
      6078      6081      6081      6082      6081      6083      6081      6084
      6084      6085      6084      6086      6084      6087      6087      6088
      6087      6089      6087      6090      6090      6091      6090      6092
      6090      6093      6093      6094      6093      6095      6093      6096
      6096      6097      6096      6098      6096      6099      6099      6100
      6099      6101      6099      6102      6102      6103      6102      6104
      6102      6105      6105      6106      6105      6107      6105      6108
      6109      6110      6109      6111      6109      6112      6109      6113
      6113      6114      6113      6115      6113      6116      6116      6117
      6116      6118      6116      6123      6123      6119      6119      6122
      6119      6120      6119      6121      6124      6125      6124      6126
      6124      6127      6124      6122      6127      6128      6127      6135
      6127      6129      6135      6136      6135      6137      6135      6138
      6129      6130      6130      6132      6130      6131      6132      6133
      6132      6134      6132      6144      6144      6145      6144      6146
      6144      6147      6147      6148      6147      6149      6147      6150
      6150      6151      6150      6152      6150      6153      6153      6154
      6153      6155      6153      6156      6156      6157      6156      6158
      6156      6159      6159      6160      6159      6161      6159      6162
      6162      6163      6162      6164      6164      6165      6164      6166
      6166      6167      6166      6168      6166      6169      6169      6170
      6169      6171      6169      6172      6172      6173      6172      6174
      6172      6175      6175      6176      6175      6177      6175      6178
      6178      6179      6178      6180      6178      6181      6181      6182
      6181      6183      6181      6184      6184      6185      6184      6186
      6184      6187      6187      6188      6187      6189      6187      6190
      6138      6139      6139      6141      6139      6140      6141      6142
      6141      6143      6141      6191      6191      6192      6191      6193
      6191      6194      6194      6195      6194      6196      6194      6197
      6197      6198      6197      6199      6197      6200      6200      6201
      6200      6202      6200      6203      6203      6204      6203      6205
      6203      6206      6206      6207      6206      6208      6206      6209
      6209      6210      6209      6211      6209      6212      6212      6213
      6212      6214      6212      6215      6215      6216      6215      6217
      6215      6218      6218      6219      6218      6220      6218      6221
      6221      6222      6221      6223      6221      6224      6224      6225
      6224      6226      6224      6227      6227      6228      6227      6229
      6227      6230      6230      6231      6230      6232      6230      6233
      6234      6235      6234      6236      6234      6237      6234      6238
      6238      6239      6238      6240      6238      6241      6241      6242
      6241      6243      6241      6248      6248      6244      6244      6247
      6244      6245      6244      6246      6249      6250      6249      6251
      6249      6252      6249      6247      6252      6253      6252      6260
      6252      6254      6260      6261      6260      6262      6260      6263
      6254      6255      6255      6257      6255      6256      6257      6258
      6257      6259      6257      6269      6269      6270      6269      6271
      6269      6272      6272      6273      6272      6274      6272      6275
      6275      6276      6275      6277      6275      6278      6278      6279
      6278      6280      6278      6281      6281      6282      6281      6283
      6281      6284      6284      6285      6284      6286      6284      6287
      6287      6288      6287      6292      6287      6289      6292      6293
      6292      6294      6292      6289      6294      6295      6294      6296
      6294      6297      6297      6298      6297      6299      6297      6300
      6300      6301      6300      6302      6300      6303      6303      6304
      6303      6305      6303      6306      6306      6307      6306      6308
      6306      6309      6309      6310      6309      6311      6309      6312
      6289      6290      6289      6291      6263      6264      6264      6266
      6264      6265      6266      6267      6266      6268      6266      6313
      6313      6314      6313      6315      6313      6316      6316      6317
      6316      6318      6316      6319      6319      6320      6319      6321
      6319      6322      6322      6323      6322      6324      6322      6325
      6325      6326      6325      6327      6325      6328      6328      6329
      6328      6330      6328      6331      6331      6332      6331      6333
      6331      6334      6334      6335      6334      6336      6334      6337
      6337      6338      6337      6339      6337      6340      6340      6341
      6340      6342      6340      6343      6343      6344      6343      6345
      6343      6346      6346      6347      6346      6348      6346      6349
      6349      6350      6349      6351      6349      6352      6353      6354
      6353      6355      6353      6356      6353      6357      6357      6358
      6357      6359      6357      6360      6360      6361      6360      6362
      6360      6367      6367      6363      6363      6366      6363      6364
      6363      6365      6368      6369      6368      6370      6368      6371
      6368      6366      6371      6372      6371      6379      6371      6373
      6379      6380      6379      6381      6379      6382      6373      6374
      6374      6376      6374      6375      6376      6377      6376      6378
      6376      6388      6388      6389      6388      6390      6388      6391
      6391      6392      6391      6393      6391      6394      6394      6395
      6394      6396      6394      6397      6397      6398      6397      6399
      6397      6400      6400      6401      6400      6402      6400      6403
      6403      6404      6403      6405      6403      6406      6406      6407
      6406      6411      6406      6408      6411      6412      6411      6413
      6411      6408      6413      6414      6413      6415      6413      6416
      6416      6417      6416      6418      6416      6419      6419      6420
      6419      6421      6419      6422      6422      6423      6422      6424
      6422      6425      6425      6426      6425      6427      6425      6428
      6428      6429      6428      6430      6428      6431      6408      6409
      6408      6410      6382      6383      6383      6385      6383      6384
      6385      6386      6385      6387      6385      6432      6432      6433
      6432      6434      6432      6435      6435      6436      6435      6437
      6435      6438      6438      6439      6438      6440      6438      6441
      6441      6442      6441      6443      6441      6444      6444      6445
      6444      6446      6444      6447      6447      6448      6447      6449
      6447      6450      6450      6451      6450      6452      6450      6453
      6453      6454      6453      6455      6453      6456      6456      6457
      6456      6458      6456      6459      6459      6460      6459      6461
      6459      6462      6462      6463      6462      6464      6462      6465
      6465      6466      6465      6467      6465      6468      6468      6469
      6468      6470      6468      6471      6471      6472      6471      6473
      6471      6474      6475      6476      6475      6477      6475      6478
      6475      6479      6479      6480      6479      6481      6479      6482
      6482      6483      6482      6484      6482      6489      6489      6485
      6485      6488      6485      6486      6485      6487      6490      6491
      6490      6492      6490      6493      6490      6488      6493      6494
      6493      6501      6493      6495      6501      6502      6501      6503
      6501      6504      6495      6496      6496      6498      6496      6497
      6498      6499      6498      6500      6498      6510      6510      6511
      6510      6512      6510      6513      6513      6514      6513      6515
      6513      6516      6516      6517      6516      6518      6516      6519
      6519      6520      6519      6521      6519      6522      6522      6523
      6522      6524      6522      6525      6525      6526      6525      6527
      6525      6528      6528      6529      6528      6533      6528      6530
      6533      6534      6533      6535      6533      6530      6535      6536
      6535      6537      6535      6538      6538      6539      6538      6540
      6538      6541      6541      6542      6541      6543      6541      6544
      6544      6545      6544      6546      6544      6547      6547      6548
      6547      6549      6547      6550      6550      6551      6550      6552
      6550      6553      6530      6531      6530      6532      6504      6505
      6505      6507      6505      6506      6507      6508      6507      6509
      6507      6554      6554      6555      6554      6556      6554      6557
      6557      6558      6557      6559      6557      6560      6560      6561
      6560      6562      6560      6563      6563      6564      6563      6565
      6563      6566      6566      6567      6566      6568      6566      6569
      6569      6570      6569      6571      6569      6572      6572      6573
      6572      6574      6572      6575      6575      6576      6575      6577
      6575      6578      6578      6579      6578      6580      6578      6581
      6581      6582      6581      6583      6581      6584      6584      6585
      6584      6586      6584      6587      6587      6588      6587      6589
      6587      6590      6590      6591      6590      6592      6590      6593
      6593      6594      6593      6595      6593      6596      6601      6600
      6600      6597      6597      6598      6597      6599      6597      6602
      6605      6604      6604      6602      6602      6603      6602      6606
      6606      6607      6606      6608      6606      6613      6613      6609
      6609      6612      6609      6610      6609      6611      6614      6615
      6614      6616      6614      6617      6614      6612      6617      6618
      6617      6625      6617      6619      6625      6626      6625      6627
      6625      6628      6619      6620      6620      6622      6620      6621
      6622      6623      6622      6624      6622      6634      6634      6635
      6634      6636      6634      6637      6637      6638      6637      6639
      6637      6640      6640      6641      6640      6642      6640      6643
      6643      6644      6643      6645      6643      6646      6646      6647
      6646      6648      6646      6649      6649      6650      6649      6651
      6649      6652      6652      6653      6652      6657      6652      6654
      6657      6658      6657      6659      6657      6654      6659      6660
      6659      6661      6659      6662      6662      6663      6662      6664
      6662      6665      6665      6666      6665      6667      6665      6668
      6668      6669      6668      6670      6668      6671      6671      6672
      6671      6673      6671      6674      6674      6675      6674      6676
      6674      6677      6654      6655      6654      6656      6628      6629
      6629      6631      6629      6630      6631      6632      6631      6633
      6631      6678      6678      6679      6678      6680      6678      6681
      6681      6682      6681      6683      6681      6684      6684      6685
      6684      6686      6684      6687      6687      6688      6687      6689
      6687      6690      6690      6691      6690      6692      6690      6693
      6693      6694      6693      6695      6693      6696      6696      6697
      6696      6698      6696      6699      6699      6700      6699      6701
      6699      6702      6702      6703      6702      6704      6702      6705
      6705      6706      6705      6707      6705      6708      6708      6709
      6708      6710      6708      6711      6711      6712      6711      6713
      6711      6714      6714      6715      6714      6716      6714      6717
      6717      6718      6717      6719      6717      6720      6725      6724
      6724      6721      6721      6722      6721      6723      6721      6726
      6729      6728      6728      6726      6726      6727      6726      6730
      6730      6731      6730      6732      6730      6737      6737      6733
      6733      6736      6733      6734      6733      6735      6738      6739
      6738      6740      6738      6741      6738      6736      6741      6742
      6741      6749      6741      6743      6749      6750      6749      6751
      6749      6752      6743      6744      6744      6746      6744      6745
      6746      6747      6746      6748      6746      6758      6758      6759
      6758      6760      6758      6761      6761      6762      6761      6763
      6761      6764      6764      6765      6764      6766      6764      6767
      6767      6768      6767      6769      6767      6770      6770      6771
      6770      6772      6770      6773      6773      6774      6773      6775
      6773      6776      6776      6777      6776      6778      6778      6779
      6778      6780      6780      6781      6780      6782      6780      6783
      6783      6784      6783      6785      6783      6786      6786      6787
      6786      6788      6786      6789      6789      6790      6789      6791
      6789      6792      6792      6793      6792      6794      6792      6795
      6795      6796      6795      6797      6795      6798      6752      6753
      6753      6755      6753      6754      6755      6756      6755      6757
      6755      6799      6799      6800      6799      6801      6799      6802
      6802      6803      6802      6804      6802      6805      6805      6806
      6805      6807      6805      6808      6808      6809      6808      6810
      6808      6811      6811      6812      6811      6813      6811      6814
      6814      6815      6814      6816      6814      6817      6817      6818
      6817      6819      6817      6820      6820      6821      6820      6822
      6820      6823      6823      6824      6823      6825      6823      6826
      6826      6827      6826      6828      6826      6829      6829      6830
      6829      6831      6829      6832      6832      6833      6832      6834
      6832      6835      6835      6836      6835      6837      6835      6838
      6838      6839      6838      6840      6838      6841      6842      6843
      6842      6844      6842      6845      6842      6846      6846      6847
      6846      6848      6846      6849      6849      6850      6849      6851
      6849      6856      6856      6852      6852      6855      6852      6853
      6852      6854      6857      6858      6857      6859      6857      6860
      6857      6855      6860      6861      6860      6868      6860      6862
      6868      6869      6868      6870      6868      6871      6862      6863
      6863      6865      6863      6864      6865      6866      6865      6867
      6865      6877      6877      6878      6877      6879      6877      6880
      6880      6881      6880      6882      6880      6883      6883      6884
      6883      6885      6883      6886      6886      6887      6886      6888
      6886      6889      6889      6890      6889      6891      6889      6892
      6892      6893      6892      6894      6892      6895      6895      6896
      6895      6900      6895      6897      6900      6901      6900      6902
      6900      6897      6902      6903      6902      6904      6902      6905
      6905      6906      6905      6907      6905      6908      6908      6909
      6908      6910      6908      6911      6911      6912      6911      6913
      6911      6914      6914      6915      6914      6916      6914      6917
      6917      6918      6917      6919      6917      6920      6897      6898
      6897      6899      6871      6872      6872      6874      6872      6873
      6874      6875      6874      6876      6874      6921      6921      6922
      6921      6923      6921      6924      6924      6925      6924      6926
      6924      6927      6927      6928      6927      6929      6927      6930
      6930      6931      6930      6932      6930      6933      6933      6934
      6933      6935      6933      6936      6936      6937      6936      6938
      6936      6939      6939      6940      6939      6941      6939      6942
      6942      6943      6942      6944      6942      6945      6945      6946
      6945      6947      6945      6948      6948      6949      6948      6950
      6948      6951      6951      6952      6951      6953      6951      6954
      6954      6955      6954      6956      6954      6957      6957      6958
      6957      6959      6957      6960      6960      6961      6960      6962
      6960      6963      6964      6965      6964      6966      6964      6967
      6964      6968      6968      6969      6968      6970      6968      6971
      6971      6972      6971      6973      6971      6978      6978      6974
      6974      6977      6974      6975      6974      6976      6979      6980
      6979      6981      6979      6982      6979      6977      6982      6983
      6982      6990      6982      6984      6990      6991      6990      6992
      6990      6993      6984      6985      6985      6987      6985      6986
      6987      6988      6987      6989      6987      6999      6999      7000
      6999      7001      6999      7002      7002      7003      7002      7004
      7002      7005      7005      7006      7005      7007      7005      7008
      7008      7009      7008      7010      7008      7011      7011      7012
      7011      7013      7011      7014      7014      7015      7014      7016
      7014      7017      7017      7018      7017      7022      7017      7019
      7022      7023      7022      7024      7022      7019      7024      7025
      7024      7026      7024      7027      7027      7028      7027      7029
      7027      7030      7030      7031      7030      7032      7030      7033
      7033      7034      7033      7035      7033      7036      7036      7037
      7036      7038      7036      7039      7039      7040      7039      7041
      7039      7042      7019      7020      7019      7021      6993      6994
      6994      6996      6994      6995      6996      6997      6996      6998
      6996      7043      7043      7044      7043      7045      7043      7046
      7046      7047      7046      7048      7046      7049      7049      7050
      7049      7051      7049      7052      7052      7053      7052      7054
      7052      7055      7055      7056      7055      7057      7055      7058
      7058      7059      7058      7060      7058      7061      7061      7062
      7061      7063      7061      7064      7064      7065      7064      7066
      7064      7067      7067      7068      7067      7069      7067      7070
      7070      7071      7070      7072      7070      7073      7073      7074
      7073      7075      7073      7076      7076      7077      7076      7078
      7076      7079      7079      7080      7079      7081      7079      7082
      7083      7084      7083      7085      7083      7086      7083      7087
      7087      7088      7087      7089      7087      7090      7090      7091
      7090      7092      7090      7097      7097      7093      7093      7096
      7093      7094      7093      7095      7098      7099      7098      7100
      7098      7101      7098      7096      7101      7102      7101      7109
      7101      7103      7109      7110      7109      7111      7109      7112
      7103      7104      7104      7106      7104      7105      7106      7107
      7106      7108      7106      7118      7118      7119      7118      7120
      7118      7121      7121      7122      7121      7123      7121      7124
      7124      7125      7124      7126      7124      7127      7127      7128
      7127      7129      7127      7130      7130      7131      7130      7132
      7130      7133      7133      7134      7133      7135      7133      7136
      7136      7137      7136      7141      7136      7138      7141      7142
      7141      7143      7141      7138      7143      7144      7143      7145
      7143      7146      7146      7147      7146      7148      7146      7149
      7149      7150      7149      7151      7149      7152      7152      7153
      7152      7154      7152      7155      7155      7156      7155      7157
      7155      7158      7158      7159      7158      7160      7158      7161
      7138      7139      7138      7140      7112      7113      7113      7115
      7113      7114      7115      7116      7115      7117      7115      7162
      7162      7163      7162      7164      7162      7165      7165      7166
      7165      7167      7165      7168      7168      7169      7168      7170
      7168      7171      7171      7172      7171      7173      7171      7174
      7174      7175      7174      7176      7174      7177      7177      7178
      7177      7179      7177      7180      7180      7181      7180      7182
      7180      7183      7183      7184      7183      7185      7183      7186
      7186      7187      7186      7188      7186      7189      7189      7190
      7189      7191      7189      7192      7192      7193      7192      7194
      7192      7195      7195      7196      7195      7197      7195      7198
      7198      7199      7198      7200      7198      7201      7202      7203
      7202      7204      7202      7205      7202      7206      7206      7207
      7206      7208      7206      7209      7209      7210      7209      7211
      7209      7216      7216      7212      7212      7215      7212      7213
      7212      7214      7217      7218      7217      7219      7217      7220
      7217      7215      7220      7221      7220      7228      7220      7222
      7228      7229      7228      7230      7228      7231      7222      7223
      7223      7225      7223      7224      7225      7226      7225      7227
      7225      7237      7237      7238      7237      7239      7237      7240
      7240      7241      7240      7242      7240      7243      7243      7244
      7243      7245      7243      7246      7246      7247      7246      7248
      7246      7249      7249      7250      7249      7251      7249      7252
      7252      7253      7252      7254      7252      7255      7255      7256
      7255      7260      7255      7257      7260      7261      7260      7262
      7260      7257      7262      7263      7262      7264      7262      7265
      7265      7266      7265      7267      7265      7268      7268      7269
      7268      7270      7268      7271      7271      7272      7271      7273
      7271      7274      7274      7275      7274      7276      7274      7277
      7277      7278      7277      7279      7277      7280      7257      7258
      7257      7259      7231      7232      7232      7234      7232      7233
      7234      7235      7234      7236      7234      7281      7281      7282
      7281      7283      7281      7284      7284      7285      7284      7286
      7284      7287      7287      7288      7287      7289      7287      7290
      7290      7291      7290      7292      7290      7293      7293      7294
      7293      7295      7293      7296      7296      7297      7296      7298
      7296      7299      7299      7300      7299      7301      7299      7302
      7302      7303      7302      7304      7302      7305      7305      7306
      7305      7307      7305      7308      7308      7309      7308      7310
      7308      7311      7311      7312      7311      7313      7311      7314
      7314      7315      7314      7316      7314      7317      7317      7318
      7317      7319      7317      7320      7321      7322      7321      7323
      7321      7324      7321      7325      7325      7326      7325      7327
      7325      7328      7328      7329      7328      7330      7328      7335
      7335      7331      7331      7334      7331      7332      7331      7333
      7336      7337      7336      7338      7336      7339      7336      7334
      7339      7340      7339      7347      7339      7341      7347      7348
      7347      7349      7347      7350      7341      7342      7342      7344
      7342      7343      7344      7345      7344      7346      7344      7356
      7356      7357      7356      7358      7356      7359      7359      7360
      7359      7361      7359      7362      7362      7363      7362      7364
      7362      7365      7365      7366      7365      7367      7365      7368
      7368      7369      7368      7370      7368      7371      7371      7372
      7371      7373      7371      7374      7374      7375      7374      7376
      7376      7377      7376      7378      7378      7379      7378      7380
      7378      7381      7381      7382      7381      7383      7381      7384
      7384      7385      7384      7386      7384      7387      7387      7388
      7387      7389      7387      7390      7390      7391      7390      7392
      7390      7393      7393      7394      7393      7395      7393      7396
      7396      7397      7396      7398      7396      7399      7399      7400
      7399      7401      7399      7402      7350      7351      7351      7353
      7351      7352      7353      7354      7353      7355      7353      7403
      7403      7404      7403      7405      7403      7406      7406      7407
      7406      7408      7406      7409      7409      7410      7409      7411
      7409      7412      7412      7413      7412      7414      7412      7415
      7415      7416      7415      7417      7415      7418      7418      7419
      7418      7420      7418      7421      7421      7422      7421      7423
      7421      7424      7424      7425      7424      7426      7424      7427
      7427      7428      7427      7429      7427      7430      7430      7431
      7430      7432      7430      7433      7433      7434      7433      7435
      7433      7436      7436      7437      7436      7438      7436      7439
      7439      7440      7439      7441      7439      7442      7442      7443
      7442      7444      7442      7445      7446      7447      7446      7448
      7446      7449      7446      7450      7450      7451      7450      7452
      7450      7453      7453      7454      7453      7455      7453      7460
      7460      7456      7456      7459      7456      7457      7456      7458
      7461      7462      7461      7463      7461      7464      7461      7459
      7464      7465      7464      7472      7464      7466      7472      7473
      7472      7474      7472      7475      7466      7467      7467      7469
      7467      7468      7469      7470      7469      7471      7469      7481
      7481      7482      7481      7483      7481      7484      7484      7485
      7484      7486      7484      7487      7487      7488      7487      7489
      7487      7490      7490      7491      7490      7492      7490      7493
      7493      7494      7493      7495      7493      7496      7496      7497
      7496      7498      7496      7499      7499      7500      7499      7504
      7499      7501      7504      7505      7504      7506      7504      7501
      7506      7507      7506      7508      7506      7509      7509      7510
      7509      7511      7509      7512      7512      7513      7512      7514
      7512      7515      7515      7516      7515      7517      7515      7518
      7518      7519      7518      7520      7518      7521      7521      7522
      7521      7523      7521      7524      7501      7502      7501      7503
      7475      7476      7476      7478      7476      7477      7478      7479
      7478      7480      7478      7525      7525      7526      7525      7527
      7525      7528      7528      7529      7528      7530      7528      7531
      7531      7532      7531      7533      7531      7534      7534      7535
      7534      7536      7534      7537      7537      7538      7537      7539
      7537      7540      7540      7541      7540      7542      7540      7543
      7543      7544      7543      7545      7543      7546      7546      7547
      7546      7548      7546      7549      7549      7550      7549      7551
      7549      7552      7552      7553      7552      7554      7552      7555
      7555      7556      7555      7557      7555      7558      7558      7559
      7558      7560      7558      7561      7561      7562      7561      7563
      7561      7564      7564      7565      7564      7566      7564      7567
      7568      7569      7568      7570      7568      7571      7568      7572
      7572      7573      7572      7574      7572      7575      7575      7576
      7575      7577      7575      7582      7582      7578      7578      7581
      7578      7579      7578      7580      7583      7584      7583      7585
      7583      7586      7583      7581      7586      7587      7586      7594
      7586      7588      7594      7595      7594      7596      7594      7597
      7588      7589      7589      7591      7589      7590      7591      7592
      7591      7593      7591      7603      7603      7604      7603      7605
      7603      7606      7606      7607      7606      7608      7606      7609
      7609      7610      7609      7611      7609      7612      7612      7613
      7612      7614      7612      7615      7615      7616      7615      7617
      7615      7618      7618      7619      7618      7620      7618      7621
      7621      7622      7621      7623      7623      7624      7623      7625
      7625      7626      7625      7627      7625      7628      7628      7629
      7628      7630      7628      7631      7631      7632      7631      7633
      7631      7634      7634      7635      7634      7636      7634      7637
      7637      7638      7637      7639      7637      7640      7640      7641
      7640      7642      7640      7643      7597      7598      7598      7600
      7598      7599      7600      7601      7600      7602      7600      7644
      7644      7645      7644      7646      7644      7647      7647      7648
      7647      7649      7647      7650      7650      7651      7650      7652
      7650      7653      7653      7654      7653      7655      7653      7656
      7656      7657      7656      7658      7656      7659      7659      7660
      7659      7661      7659      7662      7662      7663      7662      7664
      7664      7665      7664      7666      7666      7667      7666      7668
      7666      7669      7669      7670      7669      7671      7669      7672
      7672      7673      7672      7674      7672      7675      7675      7676
      7675      7677      7675      7678      7678      7679      7678      7680
      7678      7681      7681      7682      7681      7683      7681      7684
      7684      7685      7684      7686      7684      7687      7687      7688
      7687      7689      7687      7690      7695      7694      7694      7691
      7691      7692      7691      7693      7691      7696      7699      7698
      7698      7696      7696      7697      7696      7700      7700      7701
      7700      7702      7700      7707      7707      7703      7703      7706
      7703      7704      7703      7705      7708      7709      7708      7710
      7708      7711      7708      7706      7711      7712      7711      7719
      7711      7713      7719      7720      7719      7721      7719      7722
      7713      7714      7714      7716      7714      7715      7716      7717
      7716      7718      7716      7728      7728      7729      7728      7730
      7728      7731      7731      7732      7731      7733      7731      7734
      7734      7735      7734      7736      7734      7737      7737      7738
      7737      7739      7737      7740      7740      7741      7740      7742
      7740      7743      7743      7744      7743      7745      7743      7746
      7746      7747      7746      7751      7746      7748      7751      7752
      7751      7753      7751      7748      7753      7754      7753      7755
      7753      7756      7756      7757      7756      7758      7756      7759
      7759      7760      7759      7761      7759      7762      7762      7763
      7762      7764      7762      7765      7765      7766      7765      7767
      7765      7768      7768      7769      7768      7770      7768      7771
      7748      7749      7748      7750      7722      7723      7723      7725
      7723      7724      7725      7726      7725      7727      7725      7772
      7772      7773      7772      7774      7772      7775      7775      7776
      7775      7777      7775      7778      7778      7779      7778      7780
      7778      7781      7781      7782      7781      7783      7781      7784
      7784      7785      7784      7786      7784      7787      7787      7788
      7787      7789      7787      7790      7790      7791      7790      7792
      7790      7793      7793      7794      7793      7795      7793      7796
      7796      7797      7796      7798      7796      7799      7799      7800
      7799      7801      7799      7802      7802      7803      7802      7804
      7802      7805      7805      7806      7805      7807      7805      7808
      7808      7809      7808      7810      7808      7811      7811      7812
      7811      7813      7811      7814      7819      7818      7818      7815
      7815      7816      7815      7817      7815      7820      7823      7822
      7822      7820      7820      7821      7820      7824      7824      7825
      7824      7826      7824      7831      7831      7827      7827      7830
      7827      7828      7827      7829      7832      7833      7832      7834
      7832      7835      7832      7830      7835      7836      7835      7843
      7835      7837      7843      7844      7843      7845      7843      7846
      7837      7838      7838      7840      7838      7839      7840      7841
      7840      7842      7840      7852      7852      7853      7852      7854
      7852      7855      7855      7856      7855      7857      7855      7858
      7858      7859      7858      7860      7858      7861      7861      7862
      7861      7863      7861      7864      7864      7865      7864      7866
      7864      7867      7867      7868      7867      7869      7867      7870
      7870      7871      7870      7875      7870      7872      7875      7876
      7875      7877      7875      7872      7877      7878      7877      7879
      7877      7880      7880      7881      7880      7882      7880      7883
      7883      7884      7883      7885      7883      7886      7886      7887
      7886      7888      7886      7889      7889      7890      7889      7891
      7889      7892      7892      7893      7892      7894      7892      7895
      7872      7873      7872      7874      7846      7847      7847      7849
      7847      7848      7849      7850      7849      7851      7849      7896
      7896      7897      7896      7898      7896      7899      7899      7900
      7899      7901      7899      7902      7902      7903      7902      7904
      7902      7905      7905      7906      7905      7907      7905      7908
      7908      7909      7908      7910      7908      7911      7911      7912
      7911      7913      7911      7914      7914      7915      7914      7916
      7914      7917      7917      7918      7917      7919      7917      7920
      7920      7921      7920      7922      7920      7923      7923      7924
      7923      7925      7923      7926      7926      7927      7926      7928
      7926      7929      7929      7930      7929      7931      7929      7932
      7932      7933      7932      7934      7932      7935      7935      7936
      7935      7937      7935      7938      7939      7940      7939      7941
      7939      7942      7939      7943      7943      7944      7943      7945
      7943      7946      7946      7947      7946      7948      7946      7953
      7953      7949      7949      7952      7949      7950      7949      7951
      7954      7955      7954      7956      7954      7957      7954      7952
      7957      7958      7957      7965      7957      7959      7965      7966
      7965      7967      7965      7968      7959      7960      7960      7962
      7960      7961      7962      7963      7962      7964      7962      7974
      7974      7975      7974      7976      7974      7977      7977      7978
      7977      7979      7977      7980      7980      7981      7980      7982
      7980      7983      7983      7984      7983      7985      7983      7986
      7986      7987      7986      7988      7986      7989      7989      7990
      7989      7991      7989      7992      7992      7993      7992      7997
      7992      7994      7997      7998      7997      7999      7997      7994
      7999      8000      7999      8001      7999      8002      8002      8003
      8002      8004      8002      8005      8005      8006      8005      8007
      8005      8008      8008      8009      8008      8010      8008      8011
      8011      8012      8011      8013      8011      8014      8014      8015
      8014      8016      8014      8017      7994      7995      7994      7996
      7968      7969      7969      7971      7969      7970      7971      7972
      7971      7973      7971      8018      8018      8019      8018      8020
      8018      8021      8021      8022      8021      8023      8021      8024
      8024      8025      8024      8026      8024      8027      8027      8028
      8027      8029      8027      8030      8030      8031      8030      8032
      8030      8033      8033      8034      8033      8035      8033      8036
      8036      8037      8036      8038      8036      8039      8039      8040
      8039      8041      8039      8042      8042      8043      8042      8044
      8042      8045      8045      8046      8045      8047      8045      8048
      8048      8049      8048      8050      8048      8051      8051      8052
      8051      8053      8051      8054      8054      8055      8054      8056
      8054      8057      8058      8059      8058      8060      8058      8061
      8058      8062      8062      8063      8062      8064      8062      8065
      8065      8066      8065      8067      8065      8072      8072      8068
      8068      8071      8068      8069      8068      8070      8073      8074
      8073      8075      8073      8076      8073      8071      8076      8077
      8076      8084      8076      8078      8084      8085      8084      8086
      8084      8087      8078      8079      8079      8081      8079      8080
      8081      8082      8081      8083      8081      8093      8093      8094
      8093      8095      8093      8096      8096      8097      8096      8098
      8096      8099      8099      8100      8099      8101      8099      8102
      8102      8103      8102      8104      8102      8105      8105      8106
      8105      8107      8105      8108      8108      8109      8108      8110
      8108      8111      8111      8112      8111      8113      8113      8114
      8113      8115      8115      8116      8115      8117      8115      8118
      8118      8119      8118      8120      8118      8121      8121      8122
      8121      8123      8121      8124      8124      8125      8124      8126
      8124      8127      8127      8128      8127      8129      8127      8130
      8130      8131      8130      8132      8130      8133      8087      8088
      8088      8090      8088      8089      8090      8091      8090      8092
      8090      8134      8134      8135      8134      8136      8134      8137
      8137      8138      8137      8139      8137      8140      8140      8141
      8140      8142      8140      8143      8143      8144      8143      8145
      8143      8146      8146      8147      8146      8148      8146      8149
      8149      8150      8149      8151      8149      8152      8152      8153
      8152      8154      8154      8155      8154      8156      8156      8157
      8156      8158      8156      8159      8159      8160      8159      8161
      8159      8162      8162      8163      8162      8164      8162      8165
      8165      8166      8165      8167      8165      8168      8168      8169
      8168      8170      8168      8171      8171      8172      8171      8173
      8171      8174      8174      8175      8174      8176      8174      8177
      8177      8178      8177      8179      8177      8180      8181      8182
      8181      8183      8181      8184      8181      8185      8185      8186
      8185      8187      8185      8188      8188      8189      8188      8190
      8188      8195      8195      8191      8191      8194      8191      8192
      8191      8193      8196      8197      8196      8198      8196      8199
      8196      8194      8199      8200      8199      8207      8199      8201
      8207      8208      8207      8209      8207      8210      8201      8202
      8202      8204      8202      8203      8204      8205      8204      8206
      8204      8216      8216      8217      8216      8218      8216      8219
      8219      8220      8219      8221      8219      8222      8222      8223
      8222      8224      8222      8225      8225      8226      8225      8227
      8225      8228      8228      8229      8228      8230      8228      8231
      8231      8232      8231      8233      8231      8234      8234      8235
      8234      8239      8234      8236      8239      8240      8239      8241
      8239      8236      8241      8242      8241      8243      8241      8244
      8244      8245      8244      8246      8244      8247      8247      8248
      8247      8249      8247      8250      8250      8251      8250      8252
      8250      8253      8253      8254      8253      8255      8253      8256
      8256      8257      8256      8258      8256      8259      8236      8237
      8236      8238      8210      8211      8211      8213      8211      8212
      8213      8214      8213      8215      8213      8260      8260      8261
      8260      8262      8260      8263      8263      8264      8263      8265
      8263      8266      8266      8267      8266      8268      8266      8269
      8269      8270      8269      8271      8269      8272      8272      8273
      8272      8274      8272      8275      8275      8276      8275      8277
      8275      8278      8278      8279      8278      8280      8278      8281
      8281      8282      8281      8283      8281      8284      8284      8285
      8284      8286      8284      8287      8287      8288      8287      8289
      8287      8290      8290      8291      8290      8292      8290      8293
      8293      8294      8293      8295      8293      8296      8296      8297
      8296      8298      8296      8299      8299      8300      8299      8301
      8299      8302      8303      8304      8303      8305      8303      8306
      8303      8307      8307      8308      8307      8309      8307      8310
      8310      8311      8310      8312      8310      8317      8317      8313
      8313      8316      8313      8314      8313      8315      8318      8319
      8318      8320      8318      8321      8318      8316      8321      8322
      8321      8329      8321      8323      8329      8330      8329      8331
      8329      8332      8323      8324      8324      8326      8324      8325
      8326      8327      8326      8328      8326      8338      8338      8339
      8338      8340      8338      8341      8341      8342      8341      8343
      8341      8344      8344      8345      8344      8346      8344      8347
      8347      8348      8347      8349      8347      8350      8350      8351
      8350      8352      8350      8353      8353      8354      8353      8355
      8353      8356      8356      8357      8356      8358      8358      8359
      8358      8360      8360      8361      8360      8362      8360      8363
      8363      8364      8363      8365      8363      8366      8366      8367
      8366      8368      8366      8369      8369      8370      8369      8371
      8369      8372      8372      8373      8372      8374      8372      8375
      8375      8376      8375      8377      8375      8378      8378      8379
      8378      8380      8378      8381      8381      8382      8381      8383
      8381      8384      8332      8333      8333      8335      8333      8334
      8335      8336      8335      8337      8335      8385      8385      8386
      8385      8387      8385      8388      8388      8389      8388      8390
      8388      8391      8391      8392      8391      8393      8391      8394
      8394      8395      8394      8396      8394      8397      8397      8398
      8397      8399      8397      8400      8400      8401      8400      8402
      8400      8403      8403      8404      8403      8405      8403      8406
      8406      8407      8406      8408      8406      8409      8409      8410
      8409      8411      8409      8412      8412      8413      8412      8414
      8412      8415      8415      8416      8415      8417      8415      8418
      8418      8419      8418      8420      8418      8421      8421      8422
      8421      8423      8421      8424      8424      8425      8424      8426
      8424      8427      8428      8429      8428      8430      8428      8431
      8428      8432      8432      8433      8432      8434      8432      8435
      8435      8436      8435      8437      8435      8442      8442      8438
      8438      8441      8438      8439      8438      8440      8443      8444
      8443      8445      8443      8446      8443      8441      8446      8447
      8446      8454      8446      8448      8454      8455      8454      8456
      8454      8457      8448      8449      8449      8451      8449      8450
      8451      8452      8451      8453      8451      8463      8463      8464
      8463      8465      8463      8466      8466      8467      8466      8468
      8466      8469      8469      8470      8469      8471      8469      8472
      8472      8473      8472      8474      8472      8475      8475      8476
      8475      8477      8475      8478      8478      8479      8478      8480
      8478      8481      8481      8482      8481      8486      8481      8483
      8486      8487      8486      8488      8486      8483      8488      8489
      8488      8490      8488      8491      8491      8492      8491      8493
      8491      8494      8494      8495      8494      8496      8494      8497
      8497      8498      8497      8499      8497      8500      8500      8501
      8500      8502      8500      8503      8503      8504      8503      8505
      8503      8506      8483      8484      8483      8485      8457      8458
      8458      8460      8458      8459      8460      8461      8460      8462
      8460      8507      8507      8508      8507      8509      8507      8510
      8510      8511      8510      8512      8510      8513      8513      8514
      8513      8515      8513      8516      8516      8517      8516      8518
      8516      8519      8519      8520      8519      8521      8519      8522
      8522      8523      8522      8524      8522      8525      8525      8526
      8525      8527      8525      8528      8528      8529      8528      8530
      8528      8531      8531      8532      8531      8533      8531      8534
      8534      8535      8534      8536      8534      8537      8537      8538
      8537      8539      8537      8540      8540      8541      8540      8542
      8540      8543      8543      8544      8543      8545      8543      8546
      8546      8547      8546      8548      8546      8549      8554      8553
      8553      8550      8550      8551      8550      8552      8550      8555
      8558      8557      8557      8555      8555      8556      8555      8559
      8559      8560      8559      8561      8559      8566      8566      8562
      8562      8565      8562      8563      8562      8564      8567      8568
      8567      8569      8567      8570      8567      8565      8570      8571
      8570      8578      8570      8572      8578      8579      8578      8580
      8578      8581      8572      8573      8573      8575      8573      8574
      8575      8576      8575      8577      8575      8587      8587      8588
      8587      8589      8587      8590      8590      8591      8590      8592
      8590      8593      8593      8594      8593      8595      8593      8596
      8596      8597      8596      8598      8596      8599      8599      8600
      8599      8601      8599      8602      8602      8603      8602      8604
      8602      8605      8605      8606      8605      8610      8605      8607
      8610      8611      8610      8612      8610      8607      8612      8613
      8612      8614      8612      8615      8615      8616      8615      8617
      8615      8618      8618      8619      8618      8620      8618      8621
      8621      8622      8621      8623      8621      8624      8624      8625
      8624      8626      8624      8627      8627      8628      8627      8629
      8627      8630      8607      8608      8607      8609      8581      8582
      8582      8584      8582      8583      8584      8585      8584      8586
      8584      8631      8631      8632      8631      8633      8631      8634
      8634      8635      8634      8636      8634      8637      8637      8638
      8637      8639      8637      8640      8640      8641      8640      8642
      8640      8643      8643      8644      8643      8645      8643      8646
      8646      8647      8646      8648      8646      8649      8649      8650
      8649      8651      8649      8652      8652      8653      8652      8654
      8652      8655      8655      8656      8655      8657      8655      8658
      8658      8659      8658      8660      8658      8661      8661      8662
      8661      8663      8661      8664      8664      8665      8664      8666
      8664      8667      8667      8668      8667      8669      8667      8670
      8670      8671      8670      8672      8670      8673      8674      8675
      8674      8676      8674      8677      8674      8678      8678      8679
      8678      8680      8678      8681      8681      8682      8681      8683
      8681      8688      8688      8684      8684      8687      8684      8685
      8684      8686      8689      8690      8689      8691      8689      8692
      8689      8687      8692      8693      8692      8700      8692      8694
      8700      8701      8700      8702      8700      8703      8694      8695
      8695      8697      8695      8696      8697      8698      8697      8699
      8697      8709      8709      8710      8709      8711      8709      8712
      8712      8713      8712      8714      8712      8715      8715      8716
      8715      8717      8715      8718      8718      8719      8718      8720
      8718      8721      8721      8722      8721      8723      8721      8724
      8724      8725      8724      8726      8724      8727      8727      8728
      8727      8729      8729      8730      8729      8731      8731      8732
      8731      8733      8731      8734      8734      8735      8734      8736
      8734      8737      8737      8738      8737      8739      8737      8740
      8740      8741      8740      8742      8740      8743      8743      8744
      8743      8745      8743      8746      8746      8747      8746      8748
      8746      8749      8703      8704      8704      8706      8704      8705
      8706      8707      8706      8708      8706      8750      8750      8751
      8750      8752      8750      8753      8753      8754      8753      8755
      8753      8756      8756      8757      8756      8758      8756      8759
      8759      8760      8759      8761      8759      8762      8762      8763
      8762      8764      8762      8765      8765      8766      8765      8767
      8765      8768      8768      8769      8768      8770      8770      8771
      8770      8772      8772      8773      8772      8774      8772      8775
      8775      8776      8775      8777      8775      8778      8778      8779
      8778      8780      8778      8781      8781      8782      8781      8783
      8781      8784      8784      8785      8784      8786      8784      8787
      8787      8788      8787      8789      8787      8790      8790      8791
      8790      8792      8790      8793      8793      8794      8793      8795
      8793      8796      8797      8798      8797      8799      8797      8800
      8797      8801      8801      8802      8801      8803      8801      8804
      8804      8805      8804      8806      8804      8811      8811      8807
      8807      8810      8807      8808      8807      8809      8812      8813
      8812      8814      8812      8815      8812      8810      8815      8816
      8815      8823      8815      8817      8823      8824      8823      8825
      8823      8826      8817      8818      8818      8820      8818      8819
      8820      8821      8820      8822      8820      8832      8832      8833
      8832      8834      8832      8835      8835      8836      8835      8837
      8835      8838      8838      8839      8838      8840      8838      8841
      8841      8842      8841      8843      8841      8844      8844      8845
      8844      8846      8844      8847      8847      8848      8847      8849
      8847      8850      8850      8851      8850      8855      8850      8852
      8855      8856      8855      8857      8855      8852      8857      8858
      8857      8859      8857      8860      8860      8861      8860      8862
      8860      8863      8863      8864      8863      8865      8863      8866
      8866      8867      8866      8868      8866      8869      8869      8870
      8869      8871      8869      8872      8872      8873      8872      8874
      8872      8875      8852      8853      8852      8854      8826      8827
      8827      8829      8827      8828      8829      8830      8829      8831
      8829      8876      8876      8877      8876      8878      8876      8879
      8879      8880      8879      8881      8879      8882      8882      8883
      8882      8884      8882      8885      8885      8886      8885      8887
      8885      8888      8888      8889      8888      8890      8888      8891
      8891      8892      8891      8893      8891      8894      8894      8895
      8894      8896      8894      8897      8897      8898      8897      8899
      8897      8900      8900      8901      8900      8902      8900      8903
      8903      8904      8903      8905      8903      8906      8906      8907
      8906      8908      8906      8909      8909      8910      8909      8911
      8909      8912      8912      8913      8912      8914      8912      8915
      8920      8919      8919      8916      8916      8917      8916      8918
      8916      8921      8924      8923      8923      8921      8921      8922
      8921      8925      8925      8926      8925      8927      8925      8932
      8932      8928      8928      8931      8928      8929      8928      8930
      8933      8934      8933      8935      8933      8936      8933      8931
      8936      8937      8936      8944      8936      8938      8944      8945
      8944      8946      8944      8947      8938      8939      8939      8941
      8939      8940      8941      8942      8941      8943      8941      8953
      8953      8954      8953      8955      8953      8956      8956      8957
      8956      8958      8956      8959      8959      8960      8959      8961
      8959      8962      8962      8963      8962      8964      8962      8965
      8965      8966      8965      8967      8965      8968      8968      8969
      8968      8970      8968      8971      8971      8972      8971      8976
      8971      8973      8976      8977      8976      8978      8976      8973
      8978      8979      8978      8980      8978      8981      8981      8982
      8981      8983      8981      8984      8984      8985      8984      8986
      8984      8987      8987      8988      8987      8989      8987      8990
      8990      8991      8990      8992      8990      8993      8993      8994
      8993      8995      8993      8996      8973      8974      8973      8975
      8947      8948      8948      8950      8948      8949      8950      8951
      8950      8952      8950      8997      8997      8998      8997      8999
      8997      9000      9000      9001      9000      9002      9000      9003
      9003      9004      9003      9005      9003      9006      9006      9007
      9006      9008      9006      9009      9009      9010      9009      9011
      9009      9012      9012      9013      9012      9014      9012      9015
      9015      9016      9015      9017      9015      9018      9018      9019
      9018      9020      9018      9021      9021      9022      9021      9023
      9021      9024      9024      9025      9024      9026      9024      9027
      9027      9028      9027      9029      9027      9030      9030      9031
      9030      9032      9030      9033      9033      9034      9033      9035
      9033      9036      9036      9037      9036      9038      9036      9039
      9040      9041      9040      9042      9040      9043      9040      9044
      9044      9045      9044      9046      9044      9047      9047      9048
      9047      9049      9047      9054      9054      9050      9050      9053
      9050      9051      9050      9052      9055      9056      9055      9057
      9055      9058      9055      9053      9058      9059      9058      9066
      9058      9060      9066      9067      9066      9068      9066      9069
      9060      9061      9061      9063      9061      9062      9063      9064
      9063      9065      9063      9075      9075      9076      9075      9077
      9075      9078      9078      9079      9078      9080      9078      9081
      9081      9082      9081      9083      9081      9084      9084      9085
      9084      9086      9084      9087      9087      9088      9087      9089
      9087      9090      9090      9091      9090      9092      9090      9093
      9093      9094      9093      9095      9095      9096      9095      9097
      9097      9098      9097      9099      9097      9100      9100      9101
      9100      9102      9100      9103      9103      9104      9103      9105
      9103      9106      9106      9107      9106      9108      9106      9109
      9109      9110      9109      9111      9109      9112      9112      9113
      9112      9114      9112      9115      9115      9116      9115      9117
      9115      9118      9118      9119      9118      9120      9118      9121
      9069      9070      9070      9072      9070      9071      9072      9073
      9072      9074      9072      9122      9122      9123      9122      9124
      9122      9125      9125      9126      9125      9127      9125      9128
      9128      9129      9128      9130      9128      9131      9131      9132
      9131      9133      9131      9134      9134      9135      9134      9136
      9134      9137      9137      9138      9137      9139      9137      9140
      9140      9141      9140      9142      9140      9143      9143      9144
      9143      9145      9143      9146      9146      9147      9146      9148
      9146      9149      9149      9150      9149      9151      9149      9152
      9152      9153      9152      9154      9152      9155      9155      9156
      9155      9157      9155      9158      9158      9159      9158      9160
      9158      9161      9161      9162      9161      9163      9161      9164
      9165      9166      9165      9167      9165      9168      9165      9169
      9169      9170      9169      9171      9169      9172      9172      9173
      9172      9174      9172      9179      9179      9175      9175      9178
      9175      9176      9175      9177      9180      9181      9180      9182
      9180      9183      9180      9178      9183      9184      9183      9191
      9183      9185      9191      9192      9191      9193      9191      9194
      9185      9186      9186      9188      9186      9187      9188      9189
      9188      9190      9188      9200      9200      9201      9200      9202
      9200      9203      9203      9204      9203      9205      9203      9206
      9206      9207      9206      9208      9206      9209      9209      9210
      9209      9211      9209      9212      9212      9213      9212      9214
      9212      9215      9215      9216      9215      9217      9215      9218
      9218      9219      9218      9223      9218      9220      9223      9224
      9223      9225      9223      9220      9225      9226      9225      9227
      9225      9228      9228      9229      9228      9230      9228      9231
      9231      9232      9231      9233      9231      9234      9234      9235
      9234      9236      9234      9237      9237      9238      9237      9239
      9237      9240      9240      9241      9240      9242      9240      9243
      9220      9221      9220      9222      9194      9195      9195      9197
      9195      9196      9197      9198      9197      9199      9197      9244
      9244      9245      9244      9246      9244      9247      9247      9248
      9247      9249      9247      9250      9250      9251      9250      9252
      9250      9253      9253      9254      9253      9255      9253      9256
      9256      9257      9256      9258      9256      9259      9259      9260
      9259      9261      9259      9262      9262      9263      9262      9264
      9262      9265      9265      9266      9265      9267      9265      9268
      9268      9269      9268      9270      9268      9271      9271      9272
      9271      9273      9271      9274      9274      9275      9274      9276
      9274      9277      9277      9278      9277      9279      9277      9280
      9280      9281      9280      9282      9280      9283      9283      9284
      9283      9285      9283      9286      9291      9290      9290      9287
      9287      9288      9287      9289      9287      9292      9295      9294
      9294      9292      9292      9293      9292      9296      9296      9297
      9296      9298      9296      9303      9303      9299      9299      9302
      9299      9300      9299      9301      9304      9305      9304      9306
      9304      9307      9304      9302      9307      9308      9307      9315
      9307      9309      9315      9316      9315      9317      9315      9318
      9309      9310      9310      9312      9310      9311      9312      9313
      9312      9314      9312      9324      9324      9325      9324      9326
      9324      9327      9327      9328      9327      9329      9327      9330
      9330      9331      9330      9332      9330      9333      9333      9334
      9333      9335      9333      9336      9336      9337      9336      9338
      9336      9339      9339      9340      9339      9341      9339      9342
      9342      9343      9342      9344      9344      9345      9344      9346
      9346      9347      9346      9348      9346      9349      9349      9350
      9349      9351      9349      9352      9352      9353      9352      9354
      9352      9355      9355      9356      9355      9357      9355      9358
      9358      9359      9358      9360      9358      9361      9361      9362
      9361      9363      9361      9364      9318      9319      9319      9321
      9319      9320      9321      9322      9321      9323      9321      9365
      9365      9366      9365      9367      9365      9368      9368      9369
      9368      9370      9368      9371      9371      9372      9371      9373
      9371      9374      9374      9375      9374      9376      9374      9377
      9377      9378      9377      9379      9377      9380      9380      9381
      9380      9382      9380      9383      9383      9384      9383      9385
      9383      9386      9386      9387      9386      9388      9386      9389
      9389      9390      9389      9391      9389      9392      9392      9393
      9392      9394      9392      9395      9395      9396      9395      9397
      9395      9398      9398      9399      9398      9400      9398      9401
      9401      9402      9401      9403      9401      9404      9404      9405
      9404      9406      9404      9407      9408      9409      9408      9410
      9408      9411      9408      9412      9412      9413      9412      9414
      9412      9415      9415      9416      9415      9417      9415      9422
      9422      9418      9418      9421      9418      9419      9418      9420
      9423      9424      9423      9425      9423      9426      9423      9421
      9426      9427      9426      9434      9426      9428      9434      9435
      9434      9436      9434      9437      9428      9429      9429      9431
      9429      9430      9431      9432      9431      9433      9431      9443
      9443      9444      9443      9445      9443      9446      9446      9447
      9446      9448      9446      9449      9449      9450      9449      9451
      9449      9452      9452      9453      9452      9454      9452      9455
      9455      9456      9455      9457      9455      9458      9458      9459
      9458      9460      9458      9461      9461      9462      9461      9463
      9463      9464      9463      9465      9465      9466      9465      9467
      9465      9468      9468      9469      9468      9470      9468      9471
      9471      9472      9471      9473      9471      9474      9474      9475
      9474      9476      9474      9477      9477      9478      9477      9479
      9477      9480      9480      9481      9480      9482      9480      9483
      9437      9438      9438      9440      9438      9439      9440      9441
      9440      9442      9440      9484      9484      9485      9484      9486
      9484      9487      9487      9488      9487      9489      9487      9490
      9490      9491      9490      9492      9490      9493      9493      9494
      9493      9495      9493      9496      9496      9497      9496      9498
      9496      9499      9499      9500      9499      9501      9499      9502
      9502      9503      9502      9504      9504      9505      9504      9506
      9506      9507      9506      9508      9506      9509      9509      9510
      9509      9511      9509      9512      9512      9513      9512      9514
      9512      9515      9515      9516      9515      9517      9515      9518
      9518      9519      9518      9520      9518      9521      9521      9522
      9521      9523      9521      9524      9524      9525      9524      9526
      9524      9527      9527      9528      9527      9529      9527      9530
      9531      9532      9531      9533      9531      9534      9531      9535
      9535      9536      9535      9537      9535      9538      9538      9539
      9538      9540      9538      9545      9545      9541      9541      9544
      9541      9542      9541      9543      9546      9547      9546      9548
      9546      9549      9546      9544      9549      9550      9549      9557
      9549      9551      9557      9558      9557      9559      9557      9560
      9551      9552      9552      9554      9552      9553      9554      9555
      9554      9556      9554      9566      9566      9567      9566      9568
      9566      9569      9569      9570      9569      9571      9569      9572
      9572      9573      9572      9574      9572      9575      9575      9576
      9575      9577      9575      9578      9578      9579      9578      9580
      9578      9581      9581      9582      9581      9583      9581      9584
      9584      9585      9584      9589      9584      9586      9589      9590
      9589      9591      9589      9586      9591      9592      9591      9593
      9591      9594      9594      9595      9594      9596      9594      9597
      9597      9598      9597      9599      9597      9600      9600      9601
      9600      9602      9600      9603      9603      9604      9603      9605
      9603      9606      9606      9607      9606      9608      9606      9609
      9586      9587      9586      9588      9560      9561      9561      9563
      9561      9562      9563      9564      9563      9565      9563      9610
      9610      9611      9610      9612      9610      9613      9613      9614
      9613      9615      9613      9616      9616      9617      9616      9618
      9616      9619      9619      9620      9619      9621      9619      9622
      9622      9623      9622      9624      9622      9625      9625      9626
      9625      9627      9625      9628      9628      9629      9628      9630
      9628      9631      9631      9632      9631      9633      9631      9634
      9634      9635      9634      9636      9634      9637      9637      9638
      9637      9639      9637      9640      9640      9641      9640      9642
      9640      9643      9643      9644      9643      9645      9643      9646
      9646      9647      9646      9648      9646      9649      9649      9650
      9649      9651      9649      9652      9653      9654      9653      9655
      9653      9656      9653      9657      9657      9658      9657      9659
      9657      9660      9660      9661      9660      9662      9660      9667
      9667      9663      9663      9666      9663      9664      9663      9665
      9668      9669      9668      9670      9668      9671      9668      9666
      9671      9672      9671      9679      9671      9673      9679      9680
      9679      9681      9679      9682      9673      9674      9674      9676
      9674      9675      9676      9677      9676      9678      9676      9688
      9688      9689      9688      9690      9688      9691      9691      9692
      9691      9693      9691      9694      9694      9695      9694      9696
      9694      9697      9697      9698      9697      9699      9697      9700
      9700      9701      9700      9702      9700      9703      9703      9704
      9703      9705      9703      9706      9706      9707      9706      9711
      9706      9708      9711      9712      9711      9713      9711      9708
      9713      9714      9713      9715      9713      9716      9716      9717
      9716      9718      9716      9719      9719      9720      9719      9721
      9719      9722      9722      9723      9722      9724      9722      9725
      9725      9726      9725      9727      9725      9728      9728      9729
      9728      9730      9728      9731      9708      9709      9708      9710
      9682      9683      9683      9685      9683      9684      9685      9686
      9685      9687      9685      9732      9732      9733      9732      9734
      9732      9735      9735      9736      9735      9737      9735      9738
      9738      9739      9738      9740      9738      9741      9741      9742
      9741      9743      9741      9744      9744      9745      9744      9746
      9744      9747      9747      9748      9747      9749      9747      9750
      9750      9751      9750      9752      9750      9753      9753      9754
      9753      9755      9753      9756      9756      9757      9756      9758
      9756      9759      9759      9760      9759      9761      9759      9762
      9762      9763      9762      9764      9762      9765      9765      9766
      9765      9767      9765      9768      9768      9769      9768      9770
      9768      9771      9771      9772      9771      9773      9771      9774
      9775      9776      9775      9777      9775      9778      9775      9779
      9779      9780      9779      9781      9779      9782      9782      9783
      9782      9784      9782      9789      9789      9785      9785      9788
      9785      9786      9785      9787      9790      9791      9790      9792
      9790      9793      9790      9788      9793      9794      9793      9801
      9793      9795      9801      9802      9801      9803      9801      9804
      9795      9796      9796      9798      9796      9797      9798      9799
      9798      9800      9798      9810      9810      9811      9810      9812
      9810      9813      9813      9814      9813      9815      9813      9816
      9816      9817      9816      9818      9816      9819      9819      9820
      9819      9821      9819      9822      9822      9823      9822      9824
      9822      9825      9825      9826      9825      9827      9825      9828
      9828      9829      9828      9830      9830      9831      9830      9832
      9832      9833      9832      9834      9832      9835      9835      9836
      9835      9837      9835      9838      9838      9839      9838      9840
      9838      9841      9841      9842      9841      9843      9841      9844
      9844      9845      9844      9846      9844      9847      9847      9848
      9847      9849      9847      9850      9850      9851      9850      9852
      9850      9853      9853      9854      9853      9855      9853      9856
      9804      9805      9805      9807      9805      9806      9807      9808
      9807      9809      9807      9857      9857      9858      9857      9859
      9857      9860      9860      9861      9860      9862      9860      9863
      9863      9864      9863      9865      9863      9866      9866      9867
      9866      9868      9866      9869      9869      9870      9869      9871
      9869      9872      9872      9873      9872      9874      9872      9875
      9875      9876      9875      9877      9875      9878      9878      9879
      9878      9880      9878      9881      9881      9882      9881      9883
      9881      9884      9884      9885      9884      9886      9884      9887
      9887      9888      9887      9889      9887      9890      9890      9891
      9890      9892      9890      9893      9893      9894      9893      9895
      9893      9896      9896      9897      9896      9898      9896      9899
      9900      9901      9900      9902      9900      9903      9900      9904
      9904      9905      9904      9906      9904      9907      9907      9908
      9907      9909      9907      9914      9914      9910      9910      9913
      9910      9911      9910      9912      9915      9916      9915      9917
      9915      9918      9915      9913      9918      9919      9918      9926
      9918      9920      9926      9927      9926      9928      9926      9929
      9920      9921      9921      9923      9921      9922      9923      9924
      9923      9925      9923      9935      9935      9936      9935      9937
      9935      9938      9938      9939      9938      9940      9938      9941
      9941      9942      9941      9943      9941      9944      9944      9945
      9944      9946      9944      9947      9947      9948      9947      9949
      9947      9950      9950      9951      9950      9952      9950      9953
      9953      9954      9953      9955      9955      9956      9955      9957
      9957      9958      9957      9959      9957      9960      9960      9961
      9960      9962      9960      9963      9963      9964      9963      9965
      9963      9966      9966      9967      9966      9968      9966      9969
      9969      9970      9969      9971      9969      9972      9972      9973
      9972      9974      9972      9975      9975      9976      9975      9977
      9975      9978      9978      9979      9978      9980      9978      9981
      9929      9930      9930      9932      9930      9931      9932      9933
      9932      9934      9932      9982      9982      9983      9982      9984
      9982      9985      9985      9986      9985      9987      9985      9988
      9988      9989      9988      9990      9988      9991      9991      9992
      9991      9993      9991      9994      9994      9995      9994      9996
      9994      9997      9997      9998      9997      9999      9997     10000
     10000     10001     10000     10002     10000     10003     10003     10004
     10003     10005     10003     10006     10006     10007     10006     10008
     10006     10009     10009     10010     10009     10011     10009     10012
     10012     10013     10012     10014     10012     10015     10015     10016
     10015     10017     10015     10018     10018     10019     10018     10020
     10018     10021     10021     10022     10021     10023     10021     10024
     10025     10026     10025     10027     10025     10028     10025     10029
     10029     10030     10029     10031     10029     10032     10032     10033
     10032     10034     10032     10039     10039     10035     10035     10038
     10035     10036     10035     10037     10040     10041     10040     10042
     10040     10043     10040     10038     10043     10044     10043     10051
     10043     10045     10051     10052     10051     10053     10051     10054
     10045     10046     10046     10048     10046     10047     10048     10049
     10048     10050     10048     10060     10060     10061     10060     10062
     10060     10063     10063     10064     10063     10065     10063     10066
     10066     10067     10066     10068     10066     10069     10069     10070
     10069     10071     10069     10072     10072     10073     10072     10074
     10072     10075     10075     10076     10075     10077     10075     10078
     10078     10079     10078     10083     10078     10080     10083     10084
     10083     10085     10083     10080     10085     10086     10085     10087
     10085     10088     10088     10089     10088     10090     10088     10091
     10091     10092     10091     10093     10091     10094     10094     10095
     10094     10096     10094     10097     10097     10098     10097     10099
     10097     10100     10100     10101     10100     10102     10100     10103
     10080     10081     10080     10082     10054     10055     10055     10057
     10055     10056     10057     10058     10057     10059     10057     10104
     10104     10105     10104     10106     10104     10107     10107     10108
     10107     10109     10107     10110     10110     10111     10110     10112
     10110     10113     10113     10114     10113     10115     10113     10116
     10116     10117     10116     10118     10116     10119     10119     10120
     10119     10121     10119     10122     10122     10123     10122     10124
     10122     10125     10125     10126     10125     10127     10125     10128
     10128     10129     10128     10130     10128     10131     10131     10132
     10131     10133     10131     10134     10134     10135     10134     10136
     10134     10137     10137     10138     10137     10139     10137     10140
     10140     10141     10140     10142     10140     10143     10143     10144
     10143     10145     10143     10146     10147     10148     10147     10149
     10147     10150     10147     10151     10151     10152     10151     10153
     10151     10154     10154     10155     10154     10156     10154     10161
     10161     10157     10157     10160     10157     10158     10157     10159
     10162     10163     10162     10164     10162     10165     10162     10160
     10165     10166     10165     10173     10165     10167     10173     10174
     10173     10175     10173     10176     10167     10168     10168     10170
     10168     10169     10170     10171     10170     10172     10170     10182
     10182     10183     10182     10184     10182     10185     10185     10186
     10185     10187     10185     10188     10188     10189     10188     10190
     10188     10191     10191     10192     10191     10193     10191     10194
     10194     10195     10194     10196     10194     10197     10197     10198
     10197     10199     10197     10200     10200     10201     10200     10205
     10200     10202     10205     10206     10205     10207     10205     10202
     10207     10208     10207     10209     10207     10210     10210     10211
     10210     10212     10210     10213     10213     10214     10213     10215
     10213     10216     10216     10217     10216     10218     10216     10219
     10219     10220     10219     10221     10219     10222     10222     10223
     10222     10224     10222     10225     10202     10203     10202     10204
     10176     10177     10177     10179     10177     10178     10179     10180
     10179     10181     10179     10226     10226     10227     10226     10228
     10226     10229     10229     10230     10229     10231     10229     10232
     10232     10233     10232     10234     10232     10235     10235     10236
     10235     10237     10235     10238     10238     10239     10238     10240
     10238     10241     10241     10242     10241     10243     10241     10244
     10244     10245     10244     10246     10244     10247     10247     10248
     10247     10249     10247     10250     10250     10251     10250     10252
     10250     10253     10253     10254     10253     10255     10253     10256
     10256     10257     10256     10258     10256     10259     10259     10260
     10259     10261     10259     10262     10262     10263     10262     10264
     10262     10265     10265     10266     10265     10267     10265     10268
     10269     10270     10269     10271     10269     10272     10269     10273
     10273     10274     10273     10275     10273     10276     10276     10277
     10276     10278     10276     10283     10283     10279     10279     10282
     10279     10280     10279     10281     10284     10285     10284     10286
     10284     10287     10284     10282     10287     10288     10287     10295
     10287     10289     10295     10296     10295     10297     10295     10298
     10289     10290     10290     10292     10290     10291     10292     10293
     10292     10294     10292     10304     10304     10305     10304     10306
     10304     10307     10307     10308     10307     10309     10307     10310
     10310     10311     10310     10312     10310     10313     10313     10314
     10313     10315     10313     10316     10316     10317     10316     10318
     10316     10319     10319     10320     10319     10321     10319     10322
     10322     10323     10322     10324     10324     10325     10324     10326
     10326     10327     10326     10328     10326     10329     10329     10330
     10329     10331     10329     10332     10332     10333     10332     10334
     10332     10335     10335     10336     10335     10337     10335     10338
     10338     10339     10338     10340     10338     10341     10341     10342
     10341     10343     10341     10344     10298     10299     10299     10301
     10299     10300     10301     10302     10301     10303     10301     10345
     10345     10346     10345     10347     10345     10348     10348     10349
     10348     10350     10348     10351     10351     10352     10351     10353
     10351     10354     10354     10355     10354     10356     10354     10357
     10357     10358     10357     10359     10357     10360     10360     10361
     10360     10362     10360     10363     10363     10364     10363     10365
     10365     10366     10365     10367     10367     10368     10367     10369
     10367     10370     10370     10371     10370     10372     10370     10373
     10373     10374     10373     10375     10373     10376     10376     10377
     10376     10378     10376     10379     10379     10380     10379     10381
     10379     10382     10382     10383     10382     10384     10382     10385
     10385     10386     10385     10387     10385     10388     10388     10389
     10388     10390     10388     10391     10392     10393     10392     10394
     10392     10395     10392     10396     10396     10397     10396     10398
     10396     10399     10399     10400     10399     10401     10399     10406
     10406     10402     10402     10405     10402     10403     10402     10404
     10407     10408     10407     10409     10407     10410     10407     10405
     10410     10411     10410     10418     10410     10412     10418     10419
     10418     10420     10418     10421     10412     10413     10413     10415
     10413     10414     10415     10416     10415     10417     10415     10427
     10427     10428     10427     10429     10427     10430     10430     10431
     10430     10432     10430     10433     10433     10434     10433     10435
     10433     10436     10436     10437     10436     10438     10436     10439
     10439     10440     10439     10441     10439     10442     10442     10443
     10442     10444     10442     10445     10445     10446     10445     10450
     10445     10447     10450     10451     10450     10452     10450     10447
     10452     10453     10452     10454     10452     10455     10455     10456
     10455     10457     10455     10458     10458     10459     10458     10460
     10458     10461     10461     10462     10461     10463     10461     10464
     10464     10465     10464     10466     10464     10467     10467     10468
     10467     10469     10467     10470     10447     10448     10447     10449
     10421     10422     10422     10424     10422     10423     10424     10425
     10424     10426     10424     10471     10471     10472     10471     10473
     10471     10474     10474     10475     10474     10476     10474     10477
     10477     10478     10477     10479     10477     10480     10480     10481
     10480     10482     10480     10483     10483     10484     10483     10485
     10483     10486     10486     10487     10486     10488     10486     10489
     10489     10490     10489     10491     10489     10492     10492     10493
     10492     10494     10492     10495     10495     10496     10495     10497
     10495     10498     10498     10499     10498     10500     10498     10501
     10501     10502     10501     10503     10501     10504     10504     10505
     10504     10506     10504     10507     10507     10508     10507     10509
     10507     10510     10510     10511     10510     10512     10510     10513
     10514     10515     10514     10516     10514     10517     10514     10518
     10518     10519     10518     10520     10518     10521     10521     10522
     10521     10523     10521     10528     10528     10524     10524     10527
     10524     10525     10524     10526     10529     10530     10529     10531
     10529     10532     10529     10527     10532     10533     10532     10540
     10532     10534     10540     10541     10540     10542     10540     10543
     10534     10535     10535     10537     10535     10536     10537     10538
     10537     10539     10537     10549     10549     10550     10549     10551
     10549     10552     10552     10553     10552     10554     10552     10555
     10555     10556     10555     10557     10555     10558     10558     10559
     10558     10560     10558     10561     10561     10562     10561     10563
     10561     10564     10564     10565     10564     10566     10564     10567
     10567     10568     10567     10572     10567     10569     10572     10573
     10572     10574     10572     10569     10574     10575     10574     10576
     10574     10577     10577     10578     10577     10579     10577     10580
     10580     10581     10580     10582     10580     10583     10583     10584
     10583     10585     10583     10586     10586     10587     10586     10588
     10586     10589     10589     10590     10589     10591     10589     10592
     10569     10570     10569     10571     10543     10544     10544     10546
     10544     10545     10546     10547     10546     10548     10546     10593
     10593     10594     10593     10595     10593     10596     10596     10597
     10596     10598     10596     10599     10599     10600     10599     10601
     10599     10602     10602     10603     10602     10604     10602     10605
     10605     10606     10605     10607     10605     10608     10608     10609
     10608     10610     10608     10611     10611     10612     10611     10613
     10611     10614     10614     10615     10614     10616     10614     10617
     10617     10618     10617     10619     10617     10620     10620     10621
     10620     10622     10620     10623     10623     10624     10623     10625
     10623     10626     10626     10627     10626     10628     10626     10629
     10629     10630     10629     10631     10629     10632     10637     10636
     10636     10633     10633     10634     10633     10635     10633     10638
     10641     10640     10640     10638     10638     10639     10638     10642
     10642     10643     10642     10644     10642     10649     10649     10645
     10645     10648     10645     10646     10645     10647     10650     10651
     10650     10652     10650     10653     10650     10648     10653     10654
     10653     10661     10653     10655     10661     10662     10661     10663
     10661     10664     10655     10656     10656     10658     10656     10657
     10658     10659     10658     10660     10658     10670     10670     10671
     10670     10672     10670     10673     10673     10674     10673     10675
     10673     10676     10676     10677     10676     10678     10676     10679
     10679     10680     10679     10681     10679     10682     10682     10683
     10682     10684     10682     10685     10685     10686     10685     10687
     10685     10688     10688     10689     10688     10690     10690     10691
     10690     10692     10692     10693     10692     10694     10692     10695
     10695     10696     10695     10697     10695     10698     10698     10699
     10698     10700     10698     10701     10701     10702     10701     10703
     10701     10704     10704     10705     10704     10706     10704     10707
     10707     10708     10707     10709     10707     10710     10664     10665
     10665     10667     10665     10666     10667     10668     10667     10669
     10667     10711     10711     10712     10711     10713     10711     10714
     10714     10715     10714     10716     10714     10717     10717     10718
     10717     10719     10717     10720     10720     10721     10720     10722
     10720     10723     10723     10724     10723     10725     10723     10726
     10726     10727     10726     10728     10726     10729     10729     10730
     10729     10731     10729     10732     10732     10733     10732     10734
     10732     10735     10735     10736     10735     10737     10735     10738
     10738     10739     10738     10740     10738     10741     10741     10742
     10741     10743     10741     10744     10744     10745     10744     10746
     10744     10747     10747     10748     10747     10749     10747     10750
     10750     10751     10750     10752     10750     10753     10769     10765
     10769     10770     10769     10771     10765     10767     10765     10766
     10767     10768     10765     10754     10754     10755     10754     10756
     10769     10775     10754     10760     10772     10775     10772     10776
     10772     10773     10772     10774     10757     10760     10757     10761
     10757     10758     10757     10759     10776     10777     10777     10778
     10777     10779     10777     10780     10780     10781     10780     10782
     10780     10788     10788     10789     10788     10790     10788     10791
     10761     10762     10762     10763     10762     10764     10762     10797
     10797     10798     10797     10799     10797     10805     10805     10806
     10805     10807     10805     10808     10782     10783     10791     10792
     10799     10800     10808     10809     10783     10784     10783     10785
     10785     10786     10785     10787     10785     10814     10814     10815
     10814     10816     10814     10817     10817     10818     10817     10819
     10817     10820     10820     10821     10820     10822     10820     10823
     10823     10824     10823     10825     10823     10826     10826     10827
     10826     10828     10826     10829     10829     10830     10829     10831
     10829     10832     10832     10833     10832     10834     10832     10835
     10835     10836     10835     10837     10835     10838     10838     10839
     10838     10840     10840     10841     10840     10842     10842     10843
     10842     10844     10842     10845     10845     10846     10845     10847
     10845     10848     10848     10849     10848     10850     10848     10851
     10851     10852     10851     10853     10851     10854     10854     10855
     10854     10856     10854     10857     10857     10858     10857     10859
     10857     10860     10792     10793     10792     10794     10794     10795
     10794     10796     10794     10861     10861     10862     10861     10863
     10861     10864     10864     10865     10864     10866     10864     10867
     10867     10868     10867     10869     10867     10870     10870     10871
     10870     10872     10870     10873     10873     10874     10873     10875
     10873     10876     10876     10877     10876     10878     10876     10879
     10879     10880     10879     10881     10879     10882     10882     10883
     10882     10884     10882     10885     10885     10886     10885     10887
     10885     10888     10888     10889     10888     10890     10888     10891
     10891     10892     10891     10893     10891     10894     10894     10895
     10894     10896     10894     10897     10897     10898     10897     10899
     10897     10900     10900     10901     10900     10902     10900     10903
     10800     10801     10800     10802     10802     10803     10802     10804
     10802     10904     10904     10905     10904     10906     10904     10907
     10907     10908     10907     10909     10907     10910     10910     10911
     10910     10912     10910     10913     10913     10914     10913     10915
     10913     10916     10916     10917     10916     10918     10916     10919
     10919     10920     10919     10921     10919     10922     10922     10923
     10922     10924     10922     10925     10925     10926     10925     10927
     10925     10928     10928     10929     10928     10930     10930     10931
     10930     10932     10932     10933     10932     10934     10932     10935
     10935     10936     10935     10937     10935     10938     10938     10939
     10938     10940     10938     10941     10941     10942     10941     10943
     10941     10944     10944     10945     10944     10946     10944     10947
     10947     10948     10947     10949     10947     10950     10809     10810
     10809     10811     10811     10812     10811     10813     10811     10951
     10951     10952     10951     10953     10951     10954     10954     10955
     10954     10956     10954     10957     10957     10958     10957     10959
     10957     10960     10960     10961     10960     10962     10960     10963
     10963     10964     10963     10965     10963     10966     10966     10967
     10966     10968     10966     10969     10969     10970     10969     10971
     10969     10972     10972     10973     10972     10974     10972     10975
     10975     10976     10975     10977     10975     10978     10978     10979
     10978     10980     10978     10981     10981     10982     10981     10983
     10981     10984     10984     10985     10984     10986     10984     10987
     10987     10988     10987     10989     10987     10990     10990     10991
     10990     10992     10990     10993     10994     10995     10994     10996
     10994     10997     10994     10998     10998     10999     10998     11000
     10998     11001     11001     11002     11001     11003     11001     11008
     11008     11004     11004     11007     11004     11005     11004     11006
     11009     11010     11009     11011     11009     11012     11009     11007
     11012     11013     11012     11020     11012     11014     11020     11021
     11020     11022     11020     11023     11014     11015     11015     11017
     11015     11016     11017     11018     11017     11019     11017     11029
     11029     11030     11029     11031     11029     11032     11032     11033
     11032     11034     11032     11035     11035     11036     11035     11037
     11035     11038     11038     11039     11038     11040     11038     11041
     11041     11042     11041     11043     11041     11044     11044     11045
     11044     11046     11044     11047     11047     11048     11047     11052
     11047     11049     11052     11053     11052     11054     11052     11049
     11054     11055     11054     11056     11054     11057     11057     11058
     11057     11059     11057     11060     11060     11061     11060     11062
     11060     11063     11063     11064     11063     11065     11063     11066
     11066     11067     11066     11068     11066     11069     11069     11070
     11069     11071     11069     11072     11049     11050     11049     11051
     11023     11024     11024     11026     11024     11025     11026     11027
     11026     11028     11026     11073     11073     11074     11073     11075
     11073     11076     11076     11077     11076     11078     11076     11079
     11079     11080     11079     11081     11079     11082     11082     11083
     11082     11084     11082     11085     11085     11086     11085     11087
     11085     11088     11088     11089     11088     11090     11088     11091
     11091     11092     11091     11093     11091     11094     11094     11095
     11094     11096     11094     11097     11097     11098     11097     11099
     11097     11100     11100     11101     11100     11102     11100     11103
     11103     11104     11103     11105     11103     11106     11106     11107
     11106     11108     11106     11109     11109     11110     11109     11111
     11109     11112     11113     11114     11113     11115     11113     11116
     11113     11117     11117     11118     11117     11119     11117     11120
     11120     11121     11120     11122     11120     11127     11127     11123
     11123     11126     11123     11124     11123     11125     11128     11129
     11128     11130     11128     11131     11128     11126     11131     11132
     11131     11139     11131     11133     11139     11140     11139     11141
     11139     11142     11133     11134     11134     11136     11134     11135
     11136     11137     11136     11138     11136     11148     11148     11149
     11148     11150     11148     11151     11151     11152     11151     11153
     11151     11154     11154     11155     11154     11156     11154     11157
     11157     11158     11157     11159     11157     11160     11160     11161
     11160     11162     11160     11163     11163     11164     11163     11165
     11163     11166     11166     11167     11166     11171     11166     11168
     11171     11172     11171     11173     11171     11168     11173     11174
     11173     11175     11173     11176     11176     11177     11176     11178
     11176     11179     11179     11180     11179     11181     11179     11182
     11182     11183     11182     11184     11182     11185     11185     11186
     11185     11187     11185     11188     11188     11189     11188     11190
     11188     11191     11168     11169     11168     11170     11142     11143
     11143     11145     11143     11144     11145     11146     11145     11147
     11145     11192     11192     11193     11192     11194     11192     11195
     11195     11196     11195     11197     11195     11198     11198     11199
     11198     11200     11198     11201     11201     11202     11201     11203
     11201     11204     11204     11205     11204     11206     11204     11207
     11207     11208     11207     11209     11207     11210     11210     11211
     11210     11212     11210     11213     11213     11214     11213     11215
     11213     11216     11216     11217     11216     11218     11216     11219
     11219     11220     11219     11221     11219     11222     11222     11223
     11222     11224     11222     11225     11225     11226     11225     11227
     11225     11228     11228     11229     11228     11230     11228     11231
     11231     11232     11231     11233     11231     11234     11235     11236
     11235     11237     11235     11238     11235     11239     11239     11240
     11239     11241     11239     11242     11242     11243     11242     11244
     11242     11249     11249     11245     11245     11248     11245     11246
     11245     11247     11250     11251     11250     11252     11250     11253
     11250     11248     11253     11254     11253     11261     11253     11255
     11261     11262     11261     11263     11261     11264     11255     11256
     11256     11258     11256     11257     11258     11259     11258     11260
     11258     11270     11270     11271     11270     11272     11270     11273
     11273     11274     11273     11275     11273     11276     11276     11277
     11276     11278     11276     11279     11279     11280     11279     11281
     11279     11282     11282     11283     11282     11284     11282     11285
     11285     11286     11285     11287     11285     11288     11288     11289
     11288     11293     11288     11290     11293     11294     11293     11295
     11293     11290     11295     11296     11295     11297     11295     11298
     11298     11299     11298     11300     11298     11301     11301     11302
     11301     11303     11301     11304     11304     11305     11304     11306
     11304     11307     11307     11308     11307     11309     11307     11310
     11310     11311     11310     11312     11310     11313     11290     11291
     11290     11292     11264     11265     11265     11267     11265     11266
     11267     11268     11267     11269     11267     11314     11314     11315
     11314     11316     11314     11317     11317     11318     11317     11319
     11317     11320     11320     11321     11320     11322     11320     11323
     11323     11324     11323     11325     11323     11326     11326     11327
     11326     11328     11326     11329     11329     11330     11329     11331
     11329     11332     11332     11333     11332     11334     11332     11335
     11335     11336     11335     11337     11335     11338     11338     11339
     11338     11340     11338     11341     11341     11342     11341     11343
     11341     11344     11344     11345     11344     11346     11344     11347
     11347     11348     11347     11349     11347     11350     11350     11351
     11350     11352     11350     11353     11358     11357     11357     11354
     11354     11355     11354     11356     11354     11359     11362     11361
     11361     11359     11359     11360     11359     11363     11363     11364
     11363     11365     11363     11370     11370     11366     11366     11369
     11366     11367     11366     11368     11371     11372     11371     11373
     11371     11374     11371     11369     11374     11375     11374     11382
     11374     11376     11382     11383     11382     11384     11382     11385
     11376     11377     11377     11379     11377     11378     11379     11380
     11379     11381     11379     11391     11391     11392     11391     11393
     11391     11394     11394     11395     11394     11396     11394     11397
     11397     11398     11397     11399     11397     11400     11400     11401
     11400     11402     11400     11403     11403     11404     11403     11405
     11403     11406     11406     11407     11406     11408     11406     11409
     11409     11410     11409     11414     11409     11411     11414     11415
     11414     11416     11414     11411     11416     11417     11416     11418
     11416     11419     11419     11420     11419     11421     11419     11422
     11422     11423     11422     11424     11422     11425     11425     11426
     11425     11427     11425     11428     11428     11429     11428     11430
     11428     11431     11431     11432     11431     11433     11431     11434
     11411     11412     11411     11413     11385     11386     11386     11388
     11386     11387     11388     11389     11388     11390     11388     11435
     11435     11436     11435     11437     11435     11438     11438     11439
     11438     11440     11438     11441     11441     11442     11441     11443
     11441     11444     11444     11445     11444     11446     11444     11447
     11447     11448     11447     11449     11447     11450     11450     11451
     11450     11452     11450     11453     11453     11454     11453     11455
     11453     11456     11456     11457     11456     11458     11456     11459
     11459     11460     11459     11461     11459     11462     11462     11463
     11462     11464     11462     11465     11465     11466     11465     11467
     11465     11468     11468     11469     11468     11470     11468     11471
     11471     11472     11471     11473     11471     11474     11474     11475
     11474     11476     11474     11477     11478     11479     11478     11480
     11478     11481     11478     11482     11482     11483     11482     11484
     11482     11485     11485     11486     11485     11487     11485     11492
     11492     11488     11488     11491     11488     11489     11488     11490
     11493     11494     11493     11495     11493     11496     11493     11491
     11496     11497     11496     11504     11496     11498     11504     11505
     11504     11506     11504     11507     11498     11499     11499     11501
     11499     11500     11501     11502     11501     11503     11501     11513
     11513     11514     11513     11515     11513     11516     11516     11517
     11516     11518     11516     11519     11519     11520     11519     11521
     11519     11522     11522     11523     11522     11524     11522     11525
     11525     11526     11525     11527     11525     11528     11528     11529
     11528     11530     11528     11531     11531     11532     11531     11536
     11531     11533     11536     11537     11536     11538     11536     11533
     11538     11539     11538     11540     11538     11541     11541     11542
     11541     11543     11541     11544     11544     11545     11544     11546
     11544     11547     11547     11548     11547     11549     11547     11550
     11550     11551     11550     11552     11550     11553     11553     11554
     11553     11555     11553     11556     11533     11534     11533     11535
     11507     11508     11508     11510     11508     11509     11510     11511
     11510     11512     11510     11557     11557     11558     11557     11559
     11557     11560     11560     11561     11560     11562     11560     11563
     11563     11564     11563     11565     11563     11566     11566     11567
     11566     11568     11566     11569     11569     11570     11569     11571
     11569     11572     11572     11573     11572     11574     11572     11575
     11575     11576     11575     11577     11575     11578     11578     11579
     11578     11580     11578     11581     11581     11582     11581     11583
     11581     11584     11584     11585     11584     11586     11584     11587
     11587     11588     11587     11589     11587     11590     11590     11591
     11590     11592     11590     11593     11593     11594     11593     11595
     11593     11596     11596     11597     11596     11598     11596     11599
     11600     11601     11600     11602     11600     11603     11600     11604
     11604     11605     11604     11606     11604     11607     11607     11608
     11607     11609     11607     11614     11614     11610     11610     11613
     11610     11611     11610     11612     11615     11616     11615     11617
     11615     11618     11615     11613     11618     11619     11618     11626
     11618     11620     11626     11627     11626     11628     11626     11629
     11620     11621     11621     11623     11621     11622     11623     11624
     11623     11625     11623     11635     11635     11636     11635     11637
     11635     11638     11638     11639     11638     11640     11638     11641
     11641     11642     11641     11643     11641     11644     11644     11645
     11644     11646     11644     11647     11647     11648     11647     11649
     11647     11650     11650     11651     11650     11652     11650     11653
     11653     11654     11653     11658     11653     11655     11658     11659
     11658     11660     11658     11655     11660     11661     11660     11662
     11660     11663     11663     11664     11663     11665     11663     11666
     11666     11667     11666     11668     11666     11669     11669     11670
     11669     11671     11669     11672     11672     11673     11672     11674
     11672     11675     11675     11676     11675     11677     11675     11678
     11655     11656     11655     11657     11629     11630     11630     11632
     11630     11631     11632     11633     11632     11634     11632     11679
     11679     11680     11679     11681     11679     11682     11682     11683
     11682     11684     11682     11685     11685     11686     11685     11687
     11685     11688     11688     11689     11688     11690     11688     11691
     11691     11692     11691     11693     11691     11694     11694     11695
     11694     11696     11694     11697     11697     11698     11697     11699
     11697     11700     11700     11701     11700     11702     11700     11703
     11703     11704     11703     11705     11703     11706     11706     11707
     11706     11708     11706     11709     11709     11710     11709     11711
     11709     11712     11712     11713     11712     11714     11712     11715
     11715     11716     11715     11717     11715     11718     11718     11719
     11718     11720     11718     11721     11722     11723     11722     11724
     11722     11725     11722     11726     11726     11727     11726     11728
     11726     11729     11729     11730     11729     11731     11729     11736
     11736     11732     11732     11735     11732     11733     11732     11734
     11737     11738     11737     11739     11737     11740     11737     11735
     11740     11741     11740     11748     11740     11742     11748     11749
     11748     11750     11748     11751     11742     11743     11743     11745
     11743     11744     11745     11746     11745     11747     11745     11757
     11757     11758     11757     11759     11757     11760     11760     11761
     11760     11762     11760     11763     11763     11764     11763     11765
     11763     11766     11766     11767     11766     11768     11766     11769
     11769     11770     11769     11771     11769     11772     11772     11773
     11772     11774     11772     11775     11775     11776     11775     11780
     11775     11777     11780     11781     11780     11782     11780     11777
     11782     11783     11782     11784     11782     11785     11785     11786
     11785     11787     11785     11788     11788     11789     11788     11790
     11788     11791     11791     11792     11791     11793     11791     11794
     11794     11795     11794     11796     11794     11797     11797     11798
     11797     11799     11797     11800     11777     11778     11777     11779
     11751     11752     11752     11754     11752     11753     11754     11755
     11754     11756     11754     11801     11801     11802     11801     11803
     11801     11804     11804     11805     11804     11806     11804     11807
     11807     11808     11807     11809     11807     11810     11810     11811
     11810     11812     11810     11813     11813     11814     11813     11815
     11813     11816     11816     11817     11816     11818     11816     11819
     11819     11820     11819     11821     11819     11822     11822     11823
     11822     11824     11822     11825     11825     11826     11825     11827
     11825     11828     11828     11829     11828     11830     11828     11831
     11831     11832     11831     11833     11831     11834     11834     11835
     11834     11836     11834     11837     11837     11838     11837     11839
     11837     11840     11840     11841     11840     11842     11840     11843
     11844     11845     11844     11846     11844     11847     11844     11848
     11848     11849     11848     11850     11848     11851     11851     11852
     11851     11853     11851     11858     11858     11854     11854     11857
     11854     11855     11854     11856     11859     11860     11859     11861
     11859     11862     11859     11857     11862     11863     11862     11870
     11862     11864     11870     11871     11870     11872     11870     11873
     11864     11865     11865     11867     11865     11866     11867     11868
     11867     11869     11867     11879     11879     11880     11879     11881
     11879     11882     11882     11883     11882     11884     11882     11885
     11885     11886     11885     11887     11885     11888     11888     11889
     11888     11890     11888     11891     11891     11892     11891     11893
     11891     11894     11894     11895     11894     11896     11894     11897
     11897     11898     11897     11899     11899     11900     11899     11901
     11901     11902     11901     11903     11901     11904     11904     11905
     11904     11906     11904     11907     11907     11908     11907     11909
     11907     11910     11910     11911     11910     11912     11910     11913
     11913     11914     11913     11915     11913     11916     11916     11917
     11916     11918     11916     11919     11919     11920     11919     11921
     11919     11922     11922     11923     11922     11924     11922     11925
     11873     11874     11874     11876     11874     11875     11876     11877
     11876     11878     11876     11926     11926     11927     11926     11928
     11926     11929     11929     11930     11929     11931     11929     11932
     11932     11933     11932     11934     11932     11935     11935     11936
     11935     11937     11935     11938     11938     11939     11938     11940
     11938     11941     11941     11942     11941     11943     11941     11944
     11944     11945     11944     11946     11944     11947     11947     11948
     11947     11949     11947     11950     11950     11951     11950     11952
     11950     11953     11953     11954     11953     11955     11953     11956
     11956     11957     11956     11958     11956     11959     11959     11960
     11959     11961     11959     11962     11962     11963     11962     11964
     11962     11965     11965     11966     11965     11967     11965     11968
     11969     11970     11969     11971     11969     11972     11969     11973
     11973     11974     11973     11975     11973     11976     11976     11977
     11976     11978     11976     11983     11983     11979     11979     11982
     11979     11980     11979     11981     11984     11985     11984     11986
     11984     11987     11984     11982     11987     11988     11987     11995
     11987     11989     11995     11996     11995     11997     11995     11998
     11989     11990     11990     11992     11990     11991     11992     11993
     11992     11994     11992     12004     12004     12005     12004     12006
     12004     12007     12007     12008     12007     12009     12007     12010
     12010     12011     12010     12012     12010     12013     12013     12014
     12013     12015     12013     12016     12016     12017     12016     12018
     12016     12019     12019     12020     12019     12021     12019     12022
     12022     12023     12022     12027     12022     12024     12027     12028
     12027     12029     12027     12024     12029     12030     12029     12031
     12029     12032     12032     12033     12032     12034     12032     12035
     12035     12036     12035     12037     12035     12038     12038     12039
     12038     12040     12038     12041     12041     12042     12041     12043
     12041     12044     12044     12045     12044     12046     12044     12047
     12024     12025     12024     12026     11998     11999     11999     12001
     11999     12000     12001     12002     12001     12003     12001     12048
     12048     12049     12048     12050     12048     12051     12051     12052
     12051     12053     12051     12054     12054     12055     12054     12056
     12054     12057     12057     12058     12057     12059     12057     12060
     12060     12061     12060     12062     12060     12063     12063     12064
     12063     12065     12063     12066     12066     12067     12066     12068
     12066     12069     12069     12070     12069     12071     12069     12072
     12072     12073     12072     12074     12072     12075     12075     12076
     12075     12077     12075     12078     12078     12079     12078     12080
     12078     12081     12081     12082     12081     12083     12081     12084
     12084     12085     12084     12086     12084     12087     12087     12088
     12087     12089     12087     12090     12095     12094     12094     12091
     12091     12092     12091     12093     12091     12096     12099     12098
     12098     12096     12096     12097     12096     12100     12100     12101
     12100     12102     12100     12107     12107     12103     12103     12106
     12103     12104     12103     12105     12108     12109     12108     12110
     12108     12111     12108     12106     12111     12112     12111     12119
     12111     12113     12119     12120     12119     12121     12119     12122
     12113     12114     12114     12116     12114     12115     12116     12117
     12116     12118     12116     12128     12128     12129     12128     12130
     12128     12131     12131     12132     12131     12133     12131     12134
     12134     12135     12134     12136     12134     12137     12137     12138
     12137     12139     12137     12140     12140     12141     12140     12142
     12140     12143     12143     12144     12143     12145     12143     12146
     12146     12147     12146     12151     12146     12148     12151     12152
     12151     12153     12151     12148     12153     12154     12153     12155
     12153     12156     12156     12157     12156     12158     12156     12159
     12159     12160     12159     12161     12159     12162     12162     12163
     12162     12164     12162     12165     12165     12166     12165     12167
     12165     12168     12168     12169     12168     12170     12168     12171
     12148     12149     12148     12150     12122     12123     12123     12125
     12123     12124     12125     12126     12125     12127     12125     12172
     12172     12173     12172     12174     12172     12175     12175     12176
     12175     12177     12175     12178     12178     12179     12178     12180
     12178     12181     12181     12182     12181     12183     12181     12184
     12184     12185     12184     12186     12184     12187     12187     12188
     12187     12189     12187     12190     12190     12191     12190     12192
     12190     12193     12193     12194     12193     12195     12193     12196
     12196     12197     12196     12198     12196     12199     12199     12200
     12199     12201     12199     12202     12202     12203     12202     12204
     12202     12205     12205     12206     12205     12207     12205     12208
     12208     12209     12208     12210     12208     12211     12211     12212
     12211     12213     12211     12214     12215     12216     12215     12217
     12215     12218     12215     12219     12219     12220     12219     12221
     12219     12222     12222     12223     12222     12224     12222     12229
     12229     12225     12225     12228     12225     12226     12225     12227
     12230     12231     12230     12232     12230     12233     12230     12228
     12233     12234     12233     12241     12233     12235     12241     12242
     12241     12243     12241     12244     12235     12236     12236     12238
     12236     12237     12238     12239     12238     12240     12238     12250
     12250     12251     12250     12252     12250     12253     12253     12254
     12253     12255     12253     12256     12256     12257     12256     12258
     12256     12259     12259     12260     12259     12261     12259     12262
     12262     12263     12262     12264     12262     12265     12265     12266
     12265     12267     12265     12268     12268     12269     12268     12273
     12268     12270     12273     12274     12273     12275     12273     12270
     12275     12276     12275     12277     12275     12278     12278     12279
     12278     12280     12278     12281     12281     12282     12281     12283
     12281     12284     12284     12285     12284     12286     12284     12287
     12287     12288     12287     12289     12287     12290     12290     12291
     12290     12292     12290     12293     12270     12271     12270     12272
     12244     12245     12245     12247     12245     12246     12247     12248
     12247     12249     12247     12294     12294     12295     12294     12296
     12294     12297     12297     12298     12297     12299     12297     12300
     12300     12301     12300     12302     12300     12303     12303     12304
     12303     12305     12303     12306     12306     12307     12306     12308
     12306     12309     12309     12310     12309     12311     12309     12312
     12312     12313     12312     12314     12312     12315     12315     12316
     12315     12317     12315     12318     12318     12319     12318     12320
     12318     12321     12321     12322     12321     12323     12321     12324
     12324     12325     12324     12326     12324     12327     12327     12328
     12327     12329     12327     12330     12330     12331     12330     12332
     12330     12333     12333     12334     12333     12335     12333     12336
     12337     12338     12337     12339     12337     12340     12337     12341
     12341     12342     12341     12343     12341     12344     12344     12345
     12344     12346     12344     12351     12351     12347     12347     12350
     12347     12348     12347     12349     12352     12353     12352     12354
     12352     12355     12352     12350     12355     12356     12355     12363
     12355     12357     12363     12364     12363     12365     12363     12366
     12357     12358     12358     12360     12358     12359     12360     12361
     12360     12362     12360     12372     12372     12373     12372     12374
     12372     12375     12375     12376     12375     12377     12375     12378
     12378     12379     12378     12380     12378     12381     12381     12382
     12381     12383     12381     12384     12384     12385     12384     12386
     12384     12387     12387     12388     12387     12389     12387     12390
     12390     12391     12390     12395     12390     12392     12395     12396
     12395     12397     12395     12392     12397     12398     12397     12399
     12397     12400     12400     12401     12400     12402     12400     12403
     12403     12404     12403     12405     12403     12406     12406     12407
     12406     12408     12406     12409     12409     12410     12409     12411
     12409     12412     12412     12413     12412     12414     12412     12415
     12392     12393     12392     12394     12366     12367     12367     12369
     12367     12368     12369     12370     12369     12371     12369     12416
     12416     12417     12416     12418     12416     12419     12419     12420
     12419     12421     12419     12422     12422     12423     12422     12424
     12422     12425     12425     12426     12425     12427     12425     12428
     12428     12429     12428     12430     12428     12431     12431     12432
     12431     12433     12431     12434     12434     12435     12434     12436
     12434     12437     12437     12438     12437     12439     12437     12440
     12440     12441     12440     12442     12440     12443     12443     12444
     12443     12445     12443     12446     12446     12447     12446     12448
     12446     12449     12449     12450     12449     12451     12449     12452
     12452     12453     12452     12454     12452     12455     12455     12456
     12455     12457     12455     12458     12459     12460     12459     12461
     12459     12462     12459     12463     12463     12464     12463     12465
     12463     12466     12466     12467     12466     12468     12466     12473
     12473     12469     12469     12472     12469     12470     12469     12471
     12474     12475     12474     12476     12474     12477     12474     12472
     12477     12478     12477     12485     12477     12479     12485     12486
     12485     12487     12485     12488     12479     12480     12480     12482
     12480     12481     12482     12483     12482     12484     12482     12494
     12494     12495     12494     12496     12494     12497     12497     12498
     12497     12499     12497     12500     12500     12501     12500     12502
     12500     12503     12503     12504     12503     12505     12503     12506
     12506     12507     12506     12508     12506     12509     12509     12510
     12509     12511     12509     12512     12512     12513     12512     12517
     12512     12514     12517     12518     12517     12519     12517     12514
     12519     12520     12519     12521     12519     12522     12522     12523
     12522     12524     12522     12525     12525     12526     12525     12527
     12525     12528     12528     12529     12528     12530     12528     12531
     12531     12532     12531     12533     12531     12534     12534     12535
     12534     12536     12534     12537     12514     12515     12514     12516
     12488     12489     12489     12491     12489     12490     12491     12492
     12491     12493     12491     12538     12538     12539     12538     12540
     12538     12541     12541     12542     12541     12543     12541     12544
     12544     12545     12544     12546     12544     12547     12547     12548
     12547     12549     12547     12550     12550     12551     12550     12552
     12550     12553     12553     12554     12553     12555     12553     12556
     12556     12557     12556     12558     12556     12559     12559     12560
     12559     12561     12559     12562     12562     12563     12562     12564
     12562     12565     12565     12566     12565     12567     12565     12568
     12568     12569     12568     12570     12568     12571     12571     12572
     12571     12573     12571     12574     12574     12575     12574     12576
     12574     12577     12577     12578     12577     12579     12577     12580
     12581     12582     12581     12583     12581     12584     12581     12585
     12585     12586     12585     12587     12585     12588     12588     12589
     12588     12590     12588     12595     12595     12591     12591     12594
     12591     12592     12591     12593     12596     12597     12596     12598
     12596     12599     12596     12594     12599     12600     12599     12607
     12599     12601     12607     12608     12607     12609     12607     12610
     12601     12602     12602     12604     12602     12603     12604     12605
     12604     12606     12604     12616     12616     12617     12616     12618
     12616     12619     12619     12620     12619     12621     12619     12622
     12622     12623     12622     12624     12622     12625     12625     12626
     12625     12627     12625     12628     12628     12629     12628     12630
     12628     12631     12631     12632     12631     12633     12631     12634
     12634     12635     12634     12639     12634     12636     12639     12640
     12639     12641     12639     12636     12641     12642     12641     12643
     12641     12644     12644     12645     12644     12646     12644     12647
     12647     12648     12647     12649     12647     12650     12650     12651
     12650     12652     12650     12653     12653     12654     12653     12655
     12653     12656     12656     12657     12656     12658     12656     12659
     12636     12637     12636     12638     12610     12611     12611     12613
     12611     12612     12613     12614     12613     12615     12613     12660
     12660     12661     12660     12662     12660     12663     12663     12664
     12663     12665     12663     12666     12666     12667     12666     12668
     12666     12669     12669     12670     12669     12671     12669     12672
     12672     12673     12672     12674     12672     12675     12675     12676
     12675     12677     12675     12678     12678     12679     12678     12680
     12678     12681     12681     12682     12681     12683     12681     12684
     12684     12685     12684     12686     12684     12687     12687     12688
     12687     12689     12687     12690     12690     12691     12690     12692
     12690     12693     12693     12694     12693     12695     12693     12696
     12696     12697     12696     12698     12696     12699     12700     12701
     12700     12702     12700     12703     12700     12704     12704     12705
     12704     12706     12704     12707     12707     12708     12707     12709
     12707     12714     12714     12710     12710     12713     12710     12711
     12710     12712     12715     12716     12715     12717     12715     12718
     12715     12713     12718     12719     12718     12726     12718     12720
     12726     12727     12726     12728     12726     12729     12720     12721
     12721     12723     12721     12722     12723     12724     12723     12725
     12723     12735     12735     12736     12735     12737     12735     12738
     12738     12739     12738     12740     12738     12741     12741     12742
     12741     12743     12741     12744     12744     12745     12744     12746
     12744     12747     12747     12748     12747     12749     12747     12750
     12750     12751     12750     12752     12750     12753     12753     12754
     12753     12755     12755     12756     12755     12757     12757     12758
     12757     12759     12757     12760     12760     12761     12760     12762
     12760     12763     12763     12764     12763     12765     12763     12766
     12766     12767     12766     12768     12766     12769     12769     12770
     12769     12771     12769     12772     12772     12773     12772     12774
     12772     12775     12775     12776     12775     12777     12775     12778
     12778     12779     12778     12780     12778     12781     12729     12730
     12730     12732     12730     12731     12732     12733     12732     12734
     12732     12782     12782     12783     12782     12784     12782     12785
     12785     12786     12785     12787     12785     12788     12788     12789
     12788     12790     12788     12791     12791     12792     12791     12793
     12791     12794     12794     12795     12794     12796     12794     12797
     12797     12798     12797     12799     12797     12800     12800     12801
     12800     12802     12800     12803     12803     12804     12803     12805
     12803     12806     12806     12807     12806     12808     12806     12809
     12809     12810     12809     12811     12809     12812     12812     12813
     12812     12814     12812     12815     12815     12816     12815     12817
     12815     12818     12818     12819     12818     12820     12818     12821
     12821     12822     12821     12823     12821     12824     12825     12826
     12825     12827     12825     12828     12825     12829     12829     12830
     12829     12831     12829     12832     12832     12833     12832     12834
     12832     12839     12839     12835     12835     12838     12835     12836
     12835     12837     12840     12841     12840     12842     12840     12843
     12840     12838     12843     12844     12843     12851     12843     12845
     12851     12852     12851     12853     12851     12854     12845     12846
     12846     12848     12846     12847     12848     12849     12848     12850
     12848     12860     12860     12861     12860     12862     12860     12863
     12863     12864     12863     12865     12863     12866     12866     12867
     12866     12868     12866     12869     12869     12870     12869     12871
     12869     12872     12872     12873     12872     12874     12872     12875
     12875     12876     12875     12877     12875     12878     12878     12879
     12878     12880     12880     12881     12880     12882     12882     12883
     12882     12884     12882     12885     12885     12886     12885     12887
     12885     12888     12888     12889     12888     12890     12888     12891
     12891     12892     12891     12893     12891     12894     12894     12895
     12894     12896     12894     12897     12897     12898     12897     12899
     12897     12900     12854     12855     12855     12857     12855     12856
     12857     12858     12857     12859     12857     12901     12901     12902
     12901     12903     12901     12904     12904     12905     12904     12906
     12904     12907     12907     12908     12907     12909     12907     12910
     12910     12911     12910     12912     12910     12913     12913     12914
     12913     12915     12913     12916     12916     12917     12916     12918
     12916     12919     12919     12920     12919     12921     12921     12922
     12921     12923     12923     12924     12923     12925     12923     12926
     12926     12927     12926     12928     12926     12929     12929     12930
     12929     12931     12929     12932     12932     12933     12932     12934
     12932     12935     12935     12936     12935     12937     12935     12938
     12938     12939     12938     12940     12938     12941     12941     12942
     12941     12943     12941     12944     12944     12945     12944     12946
     12944     12947     12952     12951     12951     12948     12948     12949
     12948     12950     12948     12953     12956     12955     12955     12953
     12953     12954     12953     12957     12957     12958     12957     12959
     12957     12964     12964     12960     12960     12963     12960     12961
     12960     12962     12965     12966     12965     12967     12965     12968
     12965     12963     12968     12969     12968     12976     12968     12970
     12976     12977     12976     12978     12976     12979     12970     12971
     12971     12973     12971     12972     12973     12974     12973     12975
     12973     12985     12985     12986     12985     12987     12985     12988
     12988     12989     12988     12990     12988     12991     12991     12992
     12991     12993     12991     12994     12994     12995     12994     12996
     12994     12997     12997     12998     12997     12999     12997     13000
     13000     13001     13000     13002     13000     13003     13003     13004
     13003     13005     13005     13006     13005     13007     13007     13008
     13007     13009     13007     13010     13010     13011     13010     13012
     13010     13013     13013     13014     13013     13015     13013     13016
     13016     13017     13016     13018     13016     13019     13019     13020
     13019     13021     13019     13022     13022     13023     13022     13024
     13022     13025     12979     12980     12980     12982     12980     12981
     12982     12983     12982     12984     12982     13026     13026     13027
     13026     13028     13026     13029     13029     13030     13029     13031
     13029     13032     13032     13033     13032     13034     13032     13035
     13035     13036     13035     13037     13035     13038     13038     13039
     13038     13040     13038     13041     13041     13042     13041     13043
     13041     13044     13044     13045     13044     13046     13044     13047
     13047     13048     13047     13049     13047     13050     13050     13051
     13050     13052     13050     13053     13053     13054     13053     13055
     13053     13056     13056     13057     13056     13058     13056     13059
     13059     13060     13059     13061     13059     13062     13062     13063
     13062     13064     13062     13065     13065     13066     13065     13067
     13065     13068     13073     13072     13072     13069     13069     13070
     13069     13071     13069     13074     13077     13076     13076     13074
     13074     13075     13074     13078     13078     13079     13078     13080
     13078     13085     13085     13081     13081     13084     13081     13082
     13081     13083     13086     13087     13086     13088     13086     13089
     13086     13084     13089     13090     13089     13097     13089     13091
     13097     13098     13097     13099     13097     13100     13091     13092
     13092     13094     13092     13093     13094     13095     13094     13096
     13094     13106     13106     13107     13106     13108     13106     13109
     13109     13110     13109     13111     13109     13112     13112     13113
     13112     13114     13112     13115     13115     13116     13115     13117
     13115     13118     13118     13119     13118     13120     13118     13121
     13121     13122     13121     13123     13121     13124     13124     13125
     13124     13126     13126     13127     13126     13128     13128     13129
     13128     13130     13128     13131     13131     13132     13131     13133
     13131     13134     13134     13135     13134     13136     13134     13137
     13137     13138     13137     13139     13137     13140     13140     13141
     13140     13142     13140     13143     13143     13144     13143     13145
     13143     13146     13100     13101     13101     13103     13101     13102
     13103     13104     13103     13105     13103     13147     13147     13148
     13147     13149     13147     13150     13150     13151     13150     13152
     13150     13153     13153     13154     13153     13155     13153     13156
     13156     13157     13156     13158     13156     13159     13159     13160
     13159     13161     13159     13162     13162     13163     13162     13164
     13162     13165     13165     13166     13165     13167     13165     13168
     13168     13169     13168     13170     13168     13171     13171     13172
     13171     13173     13171     13174     13174     13175     13174     13176
     13174     13177     13177     13178     13177     13179     13177     13180
     13180     13181     13180     13182     13180     13183     13183     13184
     13183     13185     13183     13186     13186     13187     13186     13188
     13186     13189     13190     13191     13190     13192     13190     13193
     13190     13194     13194     13195     13194     13196     13194     13197
     13197     13198     13197     13199     13197     13204     13204     13200
     13200     13203     13200     13201     13200     13202     13205     13206
     13205     13207     13205     13208     13205     13203     13208     13209
     13208     13216     13208     13210     13216     13217     13216     13218
     13216     13219     13210     13211     13211     13213     13211     13212
     13213     13214     13213     13215     13213     13225     13225     13226
     13225     13227     13225     13228     13228     13229     13228     13230
     13228     13231     13231     13232     13231     13233     13231     13234
     13234     13235     13234     13236     13234     13237     13237     13238
     13237     13239     13237     13240     13240     13241     13240     13242
     13240     13243     13243     13244     13243     13245     13245     13246
     13245     13247     13247     13248     13247     13249     13247     13250
     13250     13251     13250     13252     13250     13253     13253     13254
     13253     13255     13253     13256     13256     13257     13256     13258
     13256     13259     13259     13260     13259     13261     13259     13262
     13262     13263     13262     13264     13262     13265     13265     13266
     13265     13267     13265     13268     13268     13269     13268     13270
     13268     13271     13219     13220     13220     13222     13220     13221
     13222     13223     13222     13224     13222     13272     13272     13273
     13272     13274     13272     13275     13275     13276     13275     13277
     13275     13278     13278     13279     13278     13280     13278     13281
     13281     13282     13281     13283     13281     13284     13284     13285
     13284     13286     13284     13287     13287     13288     13287     13289
     13287     13290     13290     13291     13290     13292     13290     13293
     13293     13294     13293     13295     13293     13296     13296     13297
     13296     13298     13296     13299     13299     13300     13299     13301
     13299     13302     13302     13303     13302     13304     13302     13305
     13305     13306     13305     13307     13305     13308     13308     13309
     13308     13310     13308     13311     13311     13312     13311     13313
     13311     13314     13315     13316     13315     13317     13315     13318
     13315     13319     13319     13320     13319     13321     13319     13322
     13322     13323     13322     13324     13322     13329     13329     13325
     13325     13328     13325     13326     13325     13327     13330     13331
     13330     13332     13330     13333     13330     13328     13333     13334
     13333     13341     13333     13335     13341     13342     13341     13343
     13341     13344     13335     13336     13336     13338     13336     13337
     13338     13339     13338     13340     13338     13350     13350     13351
     13350     13352     13350     13353     13353     13354     13353     13355
     13353     13356     13356     13357     13356     13358     13356     13359
     13359     13360     13359     13361     13359     13362     13362     13363
     13362     13364     13362     13365     13365     13366     13365     13367
     13365     13368     13368     13369     13368     13373     13368     13370
     13373     13374     13373     13375     13373     13370     13375     13376
     13375     13377     13375     13378     13378     13379     13378     13380
     13378     13381     13381     13382     13381     13383     13381     13384
     13384     13385     13384     13386     13384     13387     13387     13388
     13387     13389     13387     13390     13390     13391     13390     13392
     13390     13393     13370     13371     13370     13372     13344     13345
     13345     13347     13345     13346     13347     13348     13347     13349
     13347     13394     13394     13395     13394     13396     13394     13397
     13397     13398     13397     13399     13397     13400     13400     13401
     13400     13402     13400     13403     13403     13404     13403     13405
     13403     13406     13406     13407     13406     13408     13406     13409
     13409     13410     13409     13411     13409     13412     13412     13413
     13412     13414     13412     13415     13415     13416     13415     13417
     13415     13418     13418     13419     13418     13420     13418     13421
     13421     13422     13421     13423     13421     13424     13424     13425
     13424     13426     13424     13427     13427     13428     13427     13429
     13427     13430     13430     13431     13430     13432     13430     13433
     13433     13434     13433     13435     13433     13436     13437     13438
     13437     13439     13437     13440     13437     13441     13441     13442
     13441     13443     13441     13444     13444     13445     13444     13446
     13444     13451     13451     13447     13447     13450     13447     13448
     13447     13449     13452     13453     13452     13454     13452     13455
     13452     13450     13455     13456     13455     13463     13455     13457
     13463     13464     13463     13465     13463     13466     13457     13458
     13458     13460     13458     13459     13460     13461     13460     13462
     13460     13472     13472     13473     13472     13474     13472     13475
     13475     13476     13475     13477     13475     13478     13478     13479
     13478     13480     13478     13481     13481     13482     13481     13483
     13481     13484     13484     13485     13484     13486     13484     13487
     13487     13488     13487     13489     13487     13490     13490     13491
     13490     13492     13492     13493     13492     13494     13494     13495
     13494     13496     13494     13497     13497     13498     13497     13499
     13497     13500     13500     13501     13500     13502     13500     13503
     13503     13504     13503     13505     13503     13506     13506     13507
     13506     13508     13506     13509     13509     13510     13509     13511
     13509     13512     13512     13513     13512     13514     13512     13515
     13515     13516     13515     13517     13515     13518     13466     13467
     13467     13469     13467     13468     13469     13470     13469     13471
     13469     13519     13519     13520     13519     13521     13519     13522
     13522     13523     13522     13524     13522     13525     13525     13526
     13525     13527     13525     13528     13528     13529     13528     13530
     13528     13531     13531     13532     13531     13533     13531     13534
     13534     13535     13534     13536     13534     13537     13537     13538
     13537     13539     13537     13540     13540     13541     13540     13542
     13540     13543     13543     13544     13543     13545     13543     13546
     13546     13547     13546     13548     13546     13549     13549     13550
     13549     13551     13549     13552     13552     13553     13552     13554
     13552     13555     13555     13556     13555     13557     13555     13558
     13558     13559     13558     13560     13558     13561     13562     13563
     13562     13564     13562     13565     13562     13566     13566     13567
     13566     13568     13566     13569     13569     13570     13569     13571
     13569     13576     13576     13572     13572     13575     13572     13573
     13572     13574     13577     13578     13577     13579     13577     13580
     13577     13575     13580     13581     13580     13588     13580     13582
     13588     13589     13588     13590     13588     13591     13582     13583
     13583     13585     13583     13584     13585     13586     13585     13587
     13585     13597     13597     13598     13597     13599     13597     13600
     13600     13601     13600     13602     13600     13603     13603     13604
     13603     13605     13603     13606     13606     13607     13606     13608
     13606     13609     13609     13610     13609     13611     13609     13612
     13612     13613     13612     13614     13612     13615     13615     13616
     13615     13620     13615     13617     13620     13621     13620     13622
     13620     13617     13622     13623     13622     13624     13622     13625
     13625     13626     13625     13627     13625     13628     13628     13629
     13628     13630     13628     13631     13631     13632     13631     13633
     13631     13634     13634     13635     13634     13636     13634     13637
     13637     13638     13637     13639     13637     13640     13617     13618
     13617     13619     13591     13592     13592     13594     13592     13593
     13594     13595     13594     13596     13594     13641     13641     13642
     13641     13643     13641     13644     13644     13645     13644     13646
     13644     13647     13647     13648     13647     13649     13647     13650
     13650     13651     13650     13652     13650     13653     13653     13654
     13653     13655     13653     13656     13656     13657     13656     13658
     13656     13659     13659     13660     13659     13661     13659     13662
     13662     13663     13662     13664     13662     13665     13665     13666
     13665     13667     13665     13668     13668     13669     13668     13670
     13668     13671     13671     13672     13671     13673     13671     13674
     13674     13675     13674     13676     13674     13677     13677     13678
     13677     13679     13677     13680     13680     13681     13680     13682
     13680     13683     13684     13685     13684     13686     13684     13687
     13684     13688     13688     13689     13688     13690     13688     13691
     13691     13692     13691     13693     13691     13698     13698     13694
     13694     13697     13694     13695     13694     13696     13699     13700
     13699     13701     13699     13702     13699     13697     13702     13703
     13702     13710     13702     13704     13710     13711     13710     13712
     13710     13713     13704     13705     13705     13707     13705     13706
     13707     13708     13707     13709     13707     13719     13719     13720
     13719     13721     13719     13722     13722     13723     13722     13724
     13722     13725     13725     13726     13725     13727     13725     13728
     13728     13729     13728     13730     13728     13731     13731     13732
     13731     13733     13731     13734     13734     13735     13734     13736
     13734     13737     13737     13738     13737     13742     13737     13739
     13742     13743     13742     13744     13742     13739     13744     13745
     13744     13746     13744     13747     13747     13748     13747     13749
     13747     13750     13750     13751     13750     13752     13750     13753
     13753     13754     13753     13755     13753     13756     13756     13757
     13756     13758     13756     13759     13759     13760     13759     13761
     13759     13762     13739     13740     13739     13741     13713     13714
     13714     13716     13714     13715     13716     13717     13716     13718
     13716     13763     13763     13764     13763     13765     13763     13766
     13766     13767     13766     13768     13766     13769     13769     13770
     13769     13771     13769     13772     13772     13773     13772     13774
     13772     13775     13775     13776     13775     13777     13775     13778
     13778     13779     13778     13780     13778     13781     13781     13782
     13781     13783     13781     13784     13784     13785     13784     13786
     13784     13787     13787     13788     13787     13789     13787     13790
     13790     13791     13790     13792     13790     13793     13793     13794
     13793     13795     13793     13796     13796     13797     13796     13798
     13796     13799     13799     13800     13799     13801     13799     13802
     13802     13803     13802     13804     13802     13805     13810     13809
     13809     13806     13806     13807     13806     13808     13806     13811
     13814     13813     13813     13811     13811     13812     13811     13815
     13815     13816     13815     13817     13815     13822     13822     13818
     13818     13821     13818     13819     13818     13820     13823     13824
     13823     13825     13823     13826     13823     13821     13826     13827
     13826     13834     13826     13828     13834     13835     13834     13836
     13834     13837     13828     13829     13829     13831     13829     13830
     13831     13832     13831     13833     13831     13843     13843     13844
     13843     13845     13843     13846     13846     13847     13846     13848
     13846     13849     13849     13850     13849     13851     13849     13852
     13852     13853     13852     13854     13852     13855     13855     13856
     13855     13857     13855     13858     13858     13859     13858     13860
     13858     13861     13861     13862     13861     13863     13863     13864
     13863     13865     13865     13866     13865     13867     13865     13868
     13868     13869     13868     13870     13868     13871     13871     13872
     13871     13873     13871     13874     13874     13875     13874     13876
     13874     13877     13877     13878     13877     13879     13877     13880
     13880     13881     13880     13882     13880     13883     13837     13838
     13838     13840     13838     13839     13840     13841     13840     13842
     13840     13884     13884     13885     13884     13886     13884     13887
     13887     13888     13887     13889     13887     13890     13890     13891
     13890     13892     13890     13893     13893     13894     13893     13895
     13893     13896     13896     13897     13896     13898     13896     13899
     13899     13900     13899     13901     13899     13902     13902     13903
     13902     13904     13902     13905     13905     13906     13905     13907
     13905     13908     13908     13909     13908     13910     13908     13911
     13911     13912     13911     13913     13911     13914     13914     13915
     13914     13916     13914     13917     13917     13918     13917     13919
     13917     13920     13920     13921     13920     13922     13920     13923
     13923     13924     13923     13925     13923     13926     13927     13928
     13927     13929     13927     13930     13927     13931     13931     13932
     13931     13933     13931     13934     13934     13935     13934     13936
     13934     13941     13941     13937     13937     13940     13937     13938
     13937     13939     13942     13943     13942     13944     13942     13945
     13942     13940     13945     13946     13945     13953     13945     13947
     13953     13954     13953     13955     13953     13956     13947     13948
     13948     13950     13948     13949     13950     13951     13950     13952
     13950     13962     13962     13963     13962     13964     13962     13965
     13965     13966     13965     13967     13965     13968     13968     13969
     13968     13970     13968     13971     13971     13972     13971     13973
     13971     13974     13974     13975     13974     13976     13974     13977
     13977     13978     13977     13979     13977     13980     13980     13981
     13980     13985     13980     13982     13985     13986     13985     13987
     13985     13982     13987     13988     13987     13989     13987     13990
     13990     13991     13990     13992     13990     13993     13993     13994
     13993     13995     13993     13996     13996     13997     13996     13998
     13996     13999     13999     14000     13999     14001     13999     14002
     14002     14003     14002     14004     14002     14005     13982     13983
     13982     13984     13956     13957     13957     13959     13957     13958
     13959     13960     13959     13961     13959     14006     14006     14007
     14006     14008     14006     14009     14009     14010     14009     14011
     14009     14012     14012     14013     14012     14014     14012     14015
     14015     14016     14015     14017     14015     14018     14018     14019
     14018     14020     14018     14021     14021     14022     14021     14023
     14021     14024     14024     14025     14024     14026     14024     14027
     14027     14028     14027     14029     14027     14030     14030     14031
     14030     14032     14030     14033     14033     14034     14033     14035
     14033     14036     14036     14037     14036     14038     14036     14039
     14039     14040     14039     14041     14039     14042     14042     14043
     14042     14044     14042     14045     14045     14046     14045     14047
     14045     14048     14049     14050     14049     14051     14049     14052
     14049     14053     14053     14054     14053     14055     14053     14056
     14056     14057     14056     14058     14056     14063     14063     14059
     14059     14062     14059     14060     14059     14061     14064     14065
     14064     14066     14064     14067     14064     14062     14067     14068
     14067     14075     14067     14069     14075     14076     14075     14077
     14075     14078     14069     14070     14070     14072     14070     14071
     14072     14073     14072     14074     14072     14084     14084     14085
     14084     14086     14084     14087     14087     14088     14087     14089
     14087     14090     14090     14091     14090     14092     14090     14093
     14093     14094     14093     14095     14093     14096     14096     14097
     14096     14098     14096     14099     14099     14100     14099     14101
     14099     14102     14102     14103     14102     14107     14102     14104
     14107     14108     14107     14109     14107     14104     14109     14110
     14109     14111     14109     14112     14112     14113     14112     14114
     14112     14115     14115     14116     14115     14117     14115     14118
     14118     14119     14118     14120     14118     14121     14121     14122
     14121     14123     14121     14124     14124     14125     14124     14126
     14124     14127     14104     14105     14104     14106     14078     14079
     14079     14081     14079     14080     14081     14082     14081     14083
     14081     14128     14128     14129     14128     14130     14128     14131
     14131     14132     14131     14133     14131     14134     14134     14135
     14134     14136     14134     14137     14137     14138     14137     14139
     14137     14140     14140     14141     14140     14142     14140     14143
     14143     14144     14143     14145     14143     14146     14146     14147
     14146     14148     14146     14149     14149     14150     14149     14151
     14149     14152     14152     14153     14152     14154     14152     14155
     14155     14156     14155     14157     14155     14158     14158     14159
     14158     14160     14158     14161     14161     14162     14161     14163
     14161     14164     14164     14165     14164     14166     14164     14167
     14167     14168     14167     14169     14167     14170     14171     14172
     14171     14173     14171     14174     14171     14175     14175     14176
     14175     14177     14175     14178     14178     14179     14178     14180
     14178     14185     14185     14181     14181     14184     14181     14182
     14181     14183     14186     14187     14186     14188     14186     14189
     14186     14184     14189     14190     14189     14197     14189     14191
     14197     14198     14197     14199     14197     14200     14191     14192
     14192     14194     14192     14193     14194     14195     14194     14196
     14194     14206     14206     14207     14206     14208     14206     14209
     14209     14210     14209     14211     14209     14212     14212     14213
     14212     14214     14212     14215     14215     14216     14215     14217
     14215     14218     14218     14219     14218     14220     14218     14221
     14221     14222     14221     14223     14221     14224     14224     14225
     14224     14229     14224     14226     14229     14230     14229     14231
     14229     14226     14231     14232     14231     14233     14231     14234
     14234     14235     14234     14236     14234     14237     14237     14238
     14237     14239     14237     14240     14240     14241     14240     14242
     14240     14243     14243     14244     14243     14245     14243     14246
     14246     14247     14246     14248     14246     14249     14226     14227
     14226     14228     14200     14201     14201     14203     14201     14202
     14203     14204     14203     14205     14203     14250     14250     14251
     14250     14252     14250     14253     14253     14254     14253     14255
     14253     14256     14256     14257     14256     14258     14256     14259
     14259     14260     14259     14261     14259     14262     14262     14263
     14262     14264     14262     14265     14265     14266     14265     14267
     14265     14268     14268     14269     14268     14270     14268     14271
     14271     14272     14271     14273     14271     14274     14274     14275
     14274     14276     14274     14277     14277     14278     14277     14279
     14277     14280     14280     14281     14280     14282     14280     14283
     14283     14284     14283     14285     14283     14286     14286     14287
     14286     14288     14286     14289     14289     14290     14289     14291
     14289     14292     14308     14304     14308     14309     14308     14310
     14304     14306     14304     14305     14306     14307     14304     14293
     14293     14294     14293     14295     14308     14314     14293     14299
     14311     14314     14311     14315     14311     14312     14311     14313
     14296     14299     14296     14300     14296     14297     14296     14298
     14315     14316     14316     14317     14316     14318     14316     14319
     14319     14320     14319     14321     14319     14327     14327     14328
     14327     14329     14327     14330     14300     14301     14301     14302
     14301     14303     14301     14336     14336     14337     14336     14338
     14336     14344     14344     14345     14344     14346     14344     14347
     14321     14322     14330     14331     14338     14339     14347     14348
     14322     14323     14322     14324     14324     14325     14324     14326
     14324     14353     14353     14354     14353     14355     14353     14356
     14356     14357     14356     14358     14356     14359     14359     14360
     14359     14361     14359     14362     14362     14363     14362     14364
     14362     14365     14365     14366     14365     14367     14365     14368
     14368     14369     14368     14370     14368     14371     14371     14372
     14371     14373     14371     14374     14374     14375     14374     14376
     14374     14377     14377     14378     14377     14379     14379     14380
     14379     14381     14381     14382     14381     14383     14381     14384
     14384     14385     14384     14386     14384     14387     14387     14388
     14387     14389     14387     14390     14390     14391     14390     14392
     14390     14393     14393     14394     14393     14395     14393     14396
     14396     14397     14396     14398     14396     14399     14331     14332
     14331     14333     14333     14334     14333     14335     14333     14400
     14400     14401     14400     14402     14400     14403     14403     14404
     14403     14405     14403     14406     14406     14407     14406     14408
     14406     14409     14409     14410     14409     14411     14409     14412
     14412     14413     14412     14414     14412     14415     14415     14416
     14415     14417     14415     14418     14418     14419     14418     14420
     14418     14421     14421     14422     14421     14423     14421     14424
     14424     14425     14424     14426     14424     14427     14427     14428
     14427     14429     14427     14430     14430     14431     14430     14432
     14430     14433     14433     14434     14433     14435     14433     14436
     14436     14437     14436     14438     14436     14439     14439     14440
     14439     14441     14439     14442     14339     14340     14339     14341
     14341     14342     14341     14343     14341     14443     14443     14444
     14443     14445     14443     14446     14446     14447     14446     14448
     14446     14449     14449     14450     14449     14451     14449     14452
     14452     14453     14452     14454     14452     14455     14455     14456
     14455     14457     14455     14458     14458     14459     14458     14460
     14458     14461     14461     14462     14461     14463     14461     14464
     14464     14465     14464     14466     14464     14467     14467     14468
     14467     14469     14469     14470     14469     14471     14471     14472
     14471     14473     14471     14474     14474     14475     14474     14476
     14474     14477     14477     14478     14477     14479     14477     14480
     14480     14481     14480     14482     14480     14483     14483     14484
     14483     14485     14483     14486     14486     14487     14486     14488
     14486     14489     14348     14349     14348     14350     14350     14351
     14350     14352     14350     14490     14490     14491     14490     14492
     14490     14493     14493     14494     14493     14495     14493     14496
     14496     14497     14496     14498     14496     14499     14499     14500
     14499     14501     14499     14502     14502     14503     14502     14504
     14502     14505     14505     14506     14505     14507     14505     14508
     14508     14509     14508     14510     14508     14511     14511     14512
     14511     14513     14511     14514     14514     14515     14514     14516
     14514     14517     14517     14518     14517     14519     14517     14520
     14520     14521     14520     14522     14520     14523     14523     14524
     14523     14525     14523     14526     14526     14527     14526     14528
     14526     14529     14529     14530     14529     14531     14529     14532
     14533     14534     14533     14535     14533     14536     14533     14537
     14537     14538     14537     14539     14537     14540     14540     14541
     14540     14542     14540     14547     14547     14543     14543     14546
     14543     14544     14543     14545     14548     14549     14548     14550
     14548     14551     14548     14546     14551     14552     14551     14559
     14551     14553     14559     14560     14559     14561     14559     14562
     14553     14554     14554     14556     14554     14555     14556     14557
     14556     14558     14556     14568     14568     14569     14568     14570
     14568     14571     14571     14572     14571     14573     14571     14574
     14574     14575     14574     14576     14574     14577     14577     14578
     14577     14579     14577     14580     14580     14581     14580     14582
     14580     14583     14583     14584     14583     14585     14583     14586
     14586     14587     14586     14591     14586     14588     14591     14592
     14591     14593     14591     14588     14593     14594     14593     14595
     14593     14596     14596     14597     14596     14598     14596     14599
     14599     14600     14599     14601     14599     14602     14602     14603
     14602     14604     14602     14605     14605     14606     14605     14607
     14605     14608     14608     14609     14608     14610     14608     14611
     14588     14589     14588     14590     14562     14563     14563     14565
     14563     14564     14565     14566     14565     14567     14565     14612
     14612     14613     14612     14614     14612     14615     14615     14616
     14615     14617     14615     14618     14618     14619     14618     14620
     14618     14621     14621     14622     14621     14623     14621     14624
     14624     14625     14624     14626     14624     14627     14627     14628
     14627     14629     14627     14630     14630     14631     14630     14632
     14630     14633     14633     14634     14633     14635     14633     14636
     14636     14637     14636     14638     14636     14639     14639     14640
     14639     14641     14639     14642     14642     14643     14642     14644
     14642     14645     14645     14646     14645     14647     14645     14648
     14648     14649     14648     14650     14648     14651     14652     14653
     14652     14654     14652     14655     14652     14656     14656     14657
     14656     14658     14656     14659     14659     14660     14659     14661
     14659     14666     14666     14662     14662     14665     14662     14663
     14662     14664     14667     14668     14667     14669     14667     14670
     14667     14665     14670     14671     14670     14678     14670     14672
     14678     14679     14678     14680     14678     14681     14672     14673
     14673     14675     14673     14674     14675     14676     14675     14677
     14675     14687     14687     14688     14687     14689     14687     14690
     14690     14691     14690     14692     14690     14693     14693     14694
     14693     14695     14693     14696     14696     14697     14696     14698
     14696     14699     14699     14700     14699     14701     14699     14702
     14702     14703     14702     14704     14702     14705     14705     14706
     14705     14710     14705     14707     14710     14711     14710     14712
     14710     14707     14712     14713     14712     14714     14712     14715
     14715     14716     14715     14717     14715     14718     14718     14719
     14718     14720     14718     14721     14721     14722     14721     14723
     14721     14724     14724     14725     14724     14726     14724     14727
     14727     14728     14727     14729     14727     14730     14707     14708
     14707     14709     14681     14682     14682     14684     14682     14683
     14684     14685     14684     14686     14684     14731     14731     14732
     14731     14733     14731     14734     14734     14735     14734     14736
     14734     14737     14737     14738     14737     14739     14737     14740
     14740     14741     14740     14742     14740     14743     14743     14744
     14743     14745     14743     14746     14746     14747     14746     14748
     14746     14749     14749     14750     14749     14751     14749     14752
     14752     14753     14752     14754     14752     14755     14755     14756
     14755     14757     14755     14758     14758     14759     14758     14760
     14758     14761     14761     14762     14761     14763     14761     14764
     14764     14765     14764     14766     14764     14767     14767     14768
     14767     14769     14767     14770     14771     14772     14771     14773
     14771     14774     14771     14775     14775     14776     14775     14777
     14775     14778     14778     14779     14778     14780     14778     14785
     14785     14781     14781     14784     14781     14782     14781     14783
     14786     14787     14786     14788     14786     14789     14786     14784
     14789     14790     14789     14797     14789     14791     14797     14798
     14797     14799     14797     14800     14791     14792     14792     14794
     14792     14793     14794     14795     14794     14796     14794     14806
     14806     14807     14806     14808     14806     14809     14809     14810
     14809     14811     14809     14812     14812     14813     14812     14814
     14812     14815     14815     14816     14815     14817     14815     14818
     14818     14819     14818     14820     14818     14821     14821     14822
     14821     14823     14821     14824     14824     14825     14824     14829
     14824     14826     14829     14830     14829     14831     14829     14826
     14831     14832     14831     14833     14831     14834     14834     14835
     14834     14836     14834     14837     14837     14838     14837     14839
     14837     14840     14840     14841     14840     14842     14840     14843
     14843     14844     14843     14845     14843     14846     14846     14847
     14846     14848     14846     14849     14826     14827     14826     14828
     14800     14801     14801     14803     14801     14802     14803     14804
     14803     14805     14803     14850     14850     14851     14850     14852
     14850     14853     14853     14854     14853     14855     14853     14856
     14856     14857     14856     14858     14856     14859     14859     14860
     14859     14861     14859     14862     14862     14863     14862     14864
     14862     14865     14865     14866     14865     14867     14865     14868
     14868     14869     14868     14870     14868     14871     14871     14872
     14871     14873     14871     14874     14874     14875     14874     14876
     14874     14877     14877     14878     14877     14879     14877     14880
     14880     14881     14880     14882     14880     14883     14883     14884
     14883     14885     14883     14886     14886     14887     14886     14888
     14886     14889     14889     14890     14889     14891     14889     14892
     14897     14896     14896     14893     14893     14894     14893     14895
     14893     14898     14901     14900     14900     14898     14898     14899
     14898     14902     14902     14903     14902     14904     14902     14909
     14909     14905     14905     14908     14905     14906     14905     14907
     14910     14911     14910     14912     14910     14913     14910     14908
     14913     14914     14913     14921     14913     14915     14921     14922
     14921     14923     14921     14924     14915     14916     14916     14918
     14916     14917     14918     14919     14918     14920     14918     14930
     14930     14931     14930     14932     14930     14933     14933     14934
     14933     14935     14933     14936     14936     14937     14936     14938
     14936     14939     14939     14940     14939     14941     14939     14942
     14942     14943     14942     14944     14942     14945     14945     14946
     14945     14947     14945     14948     14948     14949     14948     14953
     14948     14950     14953     14954     14953     14955     14953     14950
     14955     14956     14955     14957     14955     14958     14958     14959
     14958     14960     14958     14961     14961     14962     14961     14963
     14961     14964     14964     14965     14964     14966     14964     14967
     14967     14968     14967     14969     14967     14970     14970     14971
     14970     14972     14970     14973     14950     14951     14950     14952
     14924     14925     14925     14927     14925     14926     14927     14928
     14927     14929     14927     14974     14974     14975     14974     14976
     14974     14977     14977     14978     14977     14979     14977     14980
     14980     14981     14980     14982     14980     14983     14983     14984
     14983     14985     14983     14986     14986     14987     14986     14988
     14986     14989     14989     14990     14989     14991     14989     14992
     14992     14993     14992     14994     14992     14995     14995     14996
     14995     14997     14995     14998     14998     14999     14998     15000
     14998     15001     15001     15002     15001     15003     15001     15004
     15004     15005     15004     15006     15004     15007     15007     15008
     15007     15009     15007     15010     15010     15011     15010     15012
     15010     15013     15013     15014     15013     15015     15013     15016
     15017     15018     15017     15019     15017     15020     15017     15021
     15021     15022     15021     15023     15021     15024     15024     15025
     15024     15026     15024     15031     15031     15027     15027     15030
     15027     15028     15027     15029     15032     15033     15032     15034
     15032     15035     15032     15030     15035     15036     15035     15043
     15035     15037     15043     15044     15043     15045     15043     15046
     15037     15038     15038     15040     15038     15039     15040     15041
     15040     15042     15040     15052     15052     15053     15052     15054
     15052     15055     15055     15056     15055     15057     15055     15058
     15058     15059     15058     15060     15058     15061     15061     15062
     15061     15063     15061     15064     15064     15065     15064     15066
     15064     15067     15067     15068     15067     15069     15067     15070
     15070     15071     15070     15075     15070     15072     15075     15076
     15075     15077     15075     15072     15077     15078     15077     15079
     15077     15080     15080     15081     15080     15082     15080     15083
     15083     15084     15083     15085     15083     15086     15086     15087
     15086     15088     15086     15089     15089     15090     15089     15091
     15089     15092     15092     15093     15092     15094     15092     15095
     15072     15073     15072     15074     15046     15047     15047     15049
     15047     15048     15049     15050     15049     15051     15049     15096
     15096     15097     15096     15098     15096     15099     15099     15100
     15099     15101     15099     15102     15102     15103     15102     15104
     15102     15105     15105     15106     15105     15107     15105     15108
     15108     15109     15108     15110     15108     15111     15111     15112
     15111     15113     15111     15114     15114     15115     15114     15116
     15114     15117     15117     15118     15117     15119     15117     15120
     15120     15121     15120     15122     15120     15123     15123     15124
     15123     15125     15123     15126     15126     15127     15126     15128
     15126     15129     15129     15130     15129     15131     15129     15132
     15132     15133     15132     15134     15132     15135     15135     15136
     15135     15137     15135     15138     15139     15140     15139     15141
     15139     15142     15139     15143     15143     15144     15143     15145
     15143     15146     15146     15147     15146     15148     15146     15153
     15153     15149     15149     15152     15149     15150     15149     15151
     15154     15155     15154     15156     15154     15157     15154     15152
     15157     15158     15157     15165     15157     15159     15165     15166
     15165     15167     15165     15168     15159     15160     15160     15162
     15160     15161     15162     15163     15162     15164     15162     15174
     15174     15175     15174     15176     15174     15177     15177     15178
     15177     15179     15177     15180     15180     15181     15180     15182
     15180     15183     15183     15184     15183     15185     15183     15186
     15186     15187     15186     15188     15186     15189     15189     15190
     15189     15191     15189     15192     15192     15193     15192     15194
     15194     15195     15194     15196     15196     15197     15196     15198
     15196     15199     15199     15200     15199     15201     15199     15202
     15202     15203     15202     15204     15202     15205     15205     15206
     15205     15207     15205     15208     15208     15209     15208     15210
     15208     15211     15211     15212     15211     15213     15211     15214
     15168     15169     15169     15171     15169     15170     15171     15172
     15171     15173     15171     15215     15215     15216     15215     15217
     15215     15218     15218     15219     15218     15220     15218     15221
     15221     15222     15221     15223     15221     15224     15224     15225
     15224     15226     15224     15227     15227     15228     15227     15229
     15227     15230     15230     15231     15230     15232     15230     15233
     15233     15234     15233     15235     15235     15236     15235     15237
     15237     15238     15237     15239     15237     15240     15240     15241
     15240     15242     15240     15243     15243     15244     15243     15245
     15243     15246     15246     15247     15246     15248     15246     15249
     15249     15250     15249     15251     15249     15252     15252     15253
     15252     15254     15252     15255     15255     15256     15255     15257
     15255     15258     15258     15259     15258     15260     15258     15261
     15262     15263     15262     15264     15262     15265     15262     15266
     15266     15267     15266     15268     15266     15269     15269     15270
     15269     15271     15269     15276     15276     15272     15272     15275
     15272     15273     15272     15274     15277     15278     15277     15279
     15277     15280     15277     15275     15280     15281     15280     15288
     15280     15282     15288     15289     15288     15290     15288     15291
     15282     15283     15283     15285     15283     15284     15285     15286
     15285     15287     15285     15297     15297     15298     15297     15299
     15297     15300     15300     15301     15300     15302     15300     15303
     15303     15304     15303     15305     15303     15306     15306     15307
     15306     15308     15306     15309     15309     15310     15309     15311
     15309     15312     15312     15313     15312     15314     15312     15315
     15315     15316     15315     15317     15317     15318     15317     15319
     15319     15320     15319     15321     15319     15322     15322     15323
     15322     15324     15322     15325     15325     15326     15325     15327
     15325     15328     15328     15329     15328     15330     15328     15331
     15331     15332     15331     15333     15331     15334     15334     15335
     15334     15336     15334     15337     15337     15338     15337     15339
     15337     15340     15340     15341     15340     15342     15340     15343
     15291     15292     15292     15294     15292     15293     15294     15295
     15294     15296     15294     15344     15344     15345     15344     15346
     15344     15347     15347     15348     15347     15349     15347     15350
     15350     15351     15350     15352     15350     15353     15353     15354
     15353     15355     15353     15356     15356     15357     15356     15358
     15356     15359     15359     15360     15359     15361     15359     15362
     15362     15363     15362     15364     15362     15365     15365     15366
     15365     15367     15365     15368     15368     15369     15368     15370
     15368     15371     15371     15372     15371     15373     15371     15374
     15374     15375     15374     15376     15374     15377     15377     15378
     15377     15379     15377     15380     15380     15381     15380     15382
     15380     15383     15383     15384     15383     15385     15383     15386
     15387     15388     15387     15389     15387     15390     15387     15391
     15391     15392     15391     15393     15391     15394     15394     15395
     15394     15396     15394     15401     15401     15397     15397     15400
     15397     15398     15397     15399     15402     15403     15402     15404
     15402     15405     15402     15400     15405     15406     15405     15413
     15405     15407     15413     15414     15413     15415     15413     15416
     15407     15408     15408     15410     15408     15409     15410     15411
     15410     15412     15410     15422     15422     15423     15422     15424
     15422     15425     15425     15426     15425     15427     15425     15428
     15428     15429     15428     15430     15428     15431     15431     15432
     15431     15433     15431     15434     15434     15435     15434     15436
     15434     15437     15437     15438     15437     15439     15437     15440
     15440     15441     15440     15445     15440     15442     15445     15446
     15445     15447     15445     15442     15447     15448     15447     15449
     15447     15450     15450     15451     15450     15452     15450     15453
     15453     15454     15453     15455     15453     15456     15456     15457
     15456     15458     15456     15459     15459     15460     15459     15461
     15459     15462     15462     15463     15462     15464     15462     15465
     15442     15443     15442     15444     15416     15417     15417     15419
     15417     15418     15419     15420     15419     15421     15419     15466
     15466     15467     15466     15468     15466     15469     15469     15470
     15469     15471     15469     15472     15472     15473     15472     15474
     15472     15475     15475     15476     15475     15477     15475     15478
     15478     15479     15478     15480     15478     15481     15481     15482
     15481     15483     15481     15484     15484     15485     15484     15486
     15484     15487     15487     15488     15487     15489     15487     15490
     15490     15491     15490     15492     15490     15493     15493     15494
     15493     15495     15493     15496     15496     15497     15496     15498
     15496     15499     15499     15500     15499     15501     15499     15502
     15502     15503     15502     15504     15502     15505     15505     15506
     15505     15507     15505     15508     15509     15510     15509     15511
     15509     15512     15509     15513     15513     15514     15513     15515
     15513     15516     15516     15517     15516     15518     15516     15523
     15523     15519     15519     15522     15519     15520     15519     15521
     15524     15525     15524     15526     15524     15527     15524     15522
     15527     15528     15527     15535     15527     15529     15535     15536
     15535     15537     15535     15538     15529     15530     15530     15532
     15530     15531     15532     15533     15532     15534     15532     15544
     15544     15545     15544     15546     15544     15547     15547     15548
     15547     15549     15547     15550     15550     15551     15550     15552
     15550     15553     15553     15554     15553     15555     15553     15556
     15556     15557     15556     15558     15556     15559     15559     15560
     15559     15561     15559     15562     15562     15563     15562     15567
     15562     15564     15567     15568     15567     15569     15567     15564
     15569     15570     15569     15571     15569     15572     15572     15573
     15572     15574     15572     15575     15575     15576     15575     15577
     15575     15578     15578     15579     15578     15580     15578     15581
     15581     15582     15581     15583     15581     15584     15584     15585
     15584     15586     15584     15587     15564     15565     15564     15566
     15538     15539     15539     15541     15539     15540     15541     15542
     15541     15543     15541     15588     15588     15589     15588     15590
     15588     15591     15591     15592     15591     15593     15591     15594
     15594     15595     15594     15596     15594     15597     15597     15598
     15597     15599     15597     15600     15600     15601     15600     15602
     15600     15603     15603     15604     15603     15605     15603     15606
     15606     15607     15606     15608     15606     15609     15609     15610
     15609     15611     15609     15612     15612     15613     15612     15614
     15612     15615     15615     15616     15615     15617     15615     15618
     15618     15619     15618     15620     15618     15621     15621     15622
     15621     15623     15621     15624     15624     15625     15624     15626
     15624     15627     15627     15628     15627     15629     15627     15630
     15631     15632     15631     15633     15631     15634     15631     15635
     15635     15636     15635     15637     15635     15638     15638     15639
     15638     15640     15638     15645     15645     15641     15641     15644
     15641     15642     15641     15643     15646     15647     15646     15648
     15646     15649     15646     15644     15649     15650     15649     15657
     15649     15651     15657     15658     15657     15659     15657     15660
     15651     15652     15652     15654     15652     15653     15654     15655
     15654     15656     15654     15666     15666     15667     15666     15668
     15666     15669     15669     15670     15669     15671     15669     15672
     15672     15673     15672     15674     15672     15675     15675     15676
     15675     15677     15675     15678     15678     15679     15678     15680
     15678     15681     15681     15682     15681     15683     15681     15684
     15684     15685     15684     15689     15684     15686     15689     15690
     15689     15691     15689     15686     15691     15692     15691     15693
     15691     15694     15694     15695     15694     15696     15694     15697
     15697     15698     15697     15699     15697     15700     15700     15701
     15700     15702     15700     15703     15703     15704     15703     15705
     15703     15706     15706     15707     15706     15708     15706     15709
     15686     15687     15686     15688     15660     15661     15661     15663
     15661     15662     15663     15664     15663     15665     15663     15710
     15710     15711     15710     15712     15710     15713     15713     15714
     15713     15715     15713     15716     15716     15717     15716     15718
     15716     15719     15719     15720     15719     15721     15719     15722
     15722     15723     15722     15724     15722     15725     15725     15726
     15725     15727     15725     15728     15728     15729     15728     15730
     15728     15731     15731     15732     15731     15733     15731     15734
     15734     15735     15734     15736     15734     15737     15737     15738
     15737     15739     15737     15740     15740     15741     15740     15742
     15740     15743     15743     15744     15743     15745     15743     15746
     15746     15747     15746     15748     15746     15749     15749     15750
     15749     15751     15749     15752     15753     15754     15753     15755
     15753     15756     15753     15757     15757     15758     15757     15759
     15757     15760     15760     15761     15760     15762     15760     15767
     15767     15763     15763     15766     15763     15764     15763     15765
     15768     15769     15768     15770     15768     15771     15768     15766
     15771     15772     15771     15779     15771     15773     15779     15780
     15779     15781     15779     15782     15773     15774     15774     15776
     15774     15775     15776     15777     15776     15778     15776     15788
     15788     15789     15788     15790     15788     15791     15791     15792
     15791     15793     15791     15794     15794     15795     15794     15796
     15794     15797     15797     15798     15797     15799     15797     15800
     15800     15801     15800     15802     15800     15803     15803     15804
     15803     15805     15803     15806     15806     15807     15806     15811
     15806     15808     15811     15812     15811     15813     15811     15808
     15813     15814     15813     15815     15813     15816     15816     15817
     15816     15818     15816     15819     15819     15820     15819     15821
     15819     15822     15822     15823     15822     15824     15822     15825
     15825     15826     15825     15827     15825     15828     15828     15829
     15828     15830     15828     15831     15808     15809     15808     15810
     15782     15783     15783     15785     15783     15784     15785     15786
     15785     15787     15785     15832     15832     15833     15832     15834
     15832     15835     15835     15836     15835     15837     15835     15838
     15838     15839     15838     15840     15838     15841     15841     15842
     15841     15843     15841     15844     15844     15845     15844     15846
     15844     15847     15847     15848     15847     15849     15847     15850
     15850     15851     15850     15852     15850     15853     15853     15854
     15853     15855     15853     15856     15856     15857     15856     15858
     15856     15859     15859     15860     15859     15861     15859     15862
     15862     15863     15862     15864     15862     15865     15865     15866
     15865     15867     15865     15868     15868     15869     15868     15870
     15868     15871     15871     15872     15871     15873     15871     15874
     15875     15876     15875     15877     15875     15878     15875     15879
     15879     15880     15879     15881     15879     15882     15882     15883
     15882     15884     15882     15889     15889     15885     15885     15888
     15885     15886     15885     15887     15890     15891     15890     15892
     15890     15893     15890     15888     15893     15894     15893     15901
     15893     15895     15901     15902     15901     15903     15901     15904
     15895     15896     15896     15898     15896     15897     15898     15899
     15898     15900     15898     15910     15910     15911     15910     15912
     15910     15913     15913     15914     15913     15915     15913     15916
     15916     15917     15916     15918     15916     15919     15919     15920
     15919     15921     15919     15922     15922     15923     15922     15924
     15922     15925     15925     15926     15925     15927     15925     15928
     15928     15929     15928     15930     15930     15931     15930     15932
     15932     15933     15932     15934     15932     15935     15935     15936
     15935     15937     15935     15938     15938     15939     15938     15940
     15938     15941     15941     15942     15941     15943     15941     15944
     15944     15945     15944     15946     15944     15947     15947     15948
     15947     15949     15947     15950     15950     15951     15950     15952
     15950     15953     15953     15954     15953     15955     15953     15956
     15904     15905     15905     15907     15905     15906     15907     15908
     15907     15909     15907     15957     15957     15958     15957     15959
     15957     15960     15960     15961     15960     15962     15960     15963
     15963     15964     15963     15965     15963     15966     15966     15967
     15966     15968     15966     15969     15969     15970     15969     15971
     15969     15972     15972     15973     15972     15974     15972     15975
     15975     15976     15975     15977     15975     15978     15978     15979
     15978     15980     15978     15981     15981     15982     15981     15983
     15981     15984     15984     15985     15984     15986     15984     15987
     15987     15988     15987     15989     15987     15990     15990     15991
     15990     15992     15990     15993     15993     15994     15993     15995
     15993     15996     15996     15997     15996     15998     15996     15999
     16004     16003     16003     16000     16000     16001     16000     16002
     16000     16005     16008     16007     16007     16005     16005     16006
     16005     16009     16009     16010     16009     16011     16009     16016
     16016     16012     16012     16015     16012     16013     16012     16014
     16017     16018     16017     16019     16017     16020     16017     16015
     16020     16021     16020     16028     16020     16022     16028     16029
     16028     16030     16028     16031     16022     16023     16023     16025
     16023     16024     16025     16026     16025     16027     16025     16037
     16037     16038     16037     16039     16037     16040     16040     16041
     16040     16042     16040     16043     16043     16044     16043     16045
     16043     16046     16046     16047     16046     16048     16046     16049
     16049     16050     16049     16051     16049     16052     16052     16053
     16052     16054     16052     16055     16055     16056     16055     16057
     16057     16058     16057     16059     16059     16060     16059     16061
     16059     16062     16062     16063     16062     16064     16062     16065
     16065     16066     16065     16067     16065     16068     16068     16069
     16068     16070     16068     16071     16071     16072     16071     16073
     16071     16074     16074     16075     16074     16076     16074     16077
     16031     16032     16032     16034     16032     16033     16034     16035
     16034     16036     16034     16078     16078     16079     16078     16080
     16078     16081     16081     16082     16081     16083     16081     16084
     16084     16085     16084     16086     16084     16087     16087     16088
     16087     16089     16087     16090     16090     16091     16090     16092
     16090     16093     16093     16094     16093     16095     16093     16096
     16096     16097     16096     16098     16096     16099     16099     16100
     16099     16101     16099     16102     16102     16103     16102     16104
     16102     16105     16105     16106     16105     16107     16105     16108
     16108     16109     16108     16110     16108     16111     16111     16112
     16111     16113     16111     16114     16114     16115     16114     16116
     16114     16117     16117     16118     16117     16119     16117     16120
     16136     16132     16136     16137     16136     16138     16132     16134
     16132     16133     16134     16135     16132     16121     16121     16122
     16121     16123     16136     16142     16121     16127     16139     16142
     16139     16143     16139     16140     16139     16141     16124     16127
     16124     16128     16124     16125     16124     16126     16143     16144
     16144     16145     16144     16146     16144     16147     16147     16148
     16147     16149     16147     16155     16155     16156     16155     16157
     16155     16158     16128     16129     16129     16130     16129     16131
     16129     16164     16164     16165     16164     16166     16164     16172
     16172     16173     16172     16174     16172     16175     16149     16150
     16158     16159     16166     16167     16175     16176     16150     16151
     16150     16152     16152     16153     16152     16154     16152     16181
     16181     16182     16181     16183     16181     16184     16184     16185
     16184     16186     16184     16187     16187     16188     16187     16189
     16187     16190     16190     16191     16190     16192     16190     16193
     16193     16194     16193     16195     16193     16196     16196     16197
     16196     16198     16196     16199     16199     16200     16199     16201
     16199     16202     16202     16203     16202     16204     16202     16205
     16205     16206     16205     16207     16207     16208     16207     16209
     16209     16210     16209     16211     16209     16212     16212     16213
     16212     16214     16212     16215     16215     16216     16215     16217
     16215     16218     16218     16219     16218     16220     16218     16221
     16221     16222     16221     16223     16221     16224     16224     16225
     16224     16226     16224     16227     16159     16160     16159     16161
     16161     16162     16161     16163     16161     16228     16228     16229
     16228     16230     16228     16231     16231     16232     16231     16233
     16231     16234     16234     16235     16234     16236     16234     16237
     16237     16238     16237     16239     16237     16240     16240     16241
     16240     16242     16240     16243     16243     16244     16243     16245
     16243     16246     16246     16247     16246     16248     16246     16249
     16249     16250     16249     16251     16249     16252     16252     16253
     16252     16254     16252     16255     16255     16256     16255     16257
     16255     16258     16258     16259     16258     16260     16258     16261
     16261     16262     16261     16263     16261     16264     16264     16265
     16264     16266     16264     16267     16267     16268     16267     16269
     16267     16270     16167     16168     16167     16169     16169     16170
     16169     16171     16169     16271     16271     16272     16271     16273
     16271     16274     16274     16275     16274     16276     16274     16277
     16277     16278     16277     16279     16277     16280     16280     16281
     16280     16282     16280     16283     16283     16284     16283     16285
     16283     16286     16286     16287     16286     16288     16286     16289
     16289     16290     16289     16291     16289     16292     16292     16293
     16292     16294     16292     16295     16295     16296     16295     16297
     16297     16298     16297     16299     16299     16300     16299     16301
     16299     16302     16302     16303     16302     16304     16302     16305
     16305     16306     16305     16307     16305     16308     16308     16309
     16308     16310     16308     16311     16311     16312     16311     16313
     16311     16314     16314     16315     16314     16316     16314     16317
     16176     16177     16176     16178     16178     16179     16178     16180
     16178     16318     16318     16319     16318     16320     16318     16321
     16321     16322     16321     16323     16321     16324     16324     16325
     16324     16326     16324     16327     16327     16328     16327     16329
     16327     16330     16330     16331     16330     16332     16330     16333
     16333     16334     16333     16335     16333     16336     16336     16337
     16336     16338     16336     16339     16339     16340     16339     16341
     16339     16342     16342     16343     16342     16344     16342     16345
     16345     16346     16345     16347     16345     16348     16348     16349
     16348     16350     16348     16351     16351     16352     16351     16353
     16351     16354     16354     16355     16354     16356     16354     16357
     16357     16358     16357     16359     16357     16360     16361     16362
     16361     16363     16361     16364     16361     16365     16365     16366
     16365     16367     16365     16368     16368     16369     16368     16370
     16368     16375     16375     16371     16371     16374     16371     16372
     16371     16373     16376     16377     16376     16378     16376     16379
     16376     16374     16379     16380     16379     16387     16379     16381
     16387     16388     16387     16389     16387     16390     16381     16382
     16382     16384     16382     16383     16384     16385     16384     16386
     16384     16396     16396     16397     16396     16398     16396     16399
     16399     16400     16399     16401     16399     16402     16402     16403
     16402     16404     16402     16405     16405     16406     16405     16407
     16405     16408     16408     16409     16408     16410     16408     16411
     16411     16412     16411     16413     16411     16414     16414     16415
     16414     16419     16414     16416     16419     16420     16419     16421
     16419     16416     16421     16422     16421     16423     16421     16424
     16424     16425     16424     16426     16424     16427     16427     16428
     16427     16429     16427     16430     16430     16431     16430     16432
     16430     16433     16433     16434     16433     16435     16433     16436
     16436     16437     16436     16438     16436     16439     16416     16417
     16416     16418     16390     16391     16391     16393     16391     16392
     16393     16394     16393     16395     16393     16440     16440     16441
     16440     16442     16440     16443     16443     16444     16443     16445
     16443     16446     16446     16447     16446     16448     16446     16449
     16449     16450     16449     16451     16449     16452     16452     16453
     16452     16454     16452     16455     16455     16456     16455     16457
     16455     16458     16458     16459     16458     16460     16458     16461
     16461     16462     16461     16463     16461     16464     16464     16465
     16464     16466     16464     16467     16467     16468     16467     16469
     16467     16470     16470     16471     16470     16472     16470     16473
     16473     16474     16473     16475     16473     16476     16476     16477
     16476     16478     16476     16479     16479     16480     16479     16481
     16479     16482     16483     16484     16483     16485     16483     16486
     16483     16487     16487     16488     16487     16489     16487     16490
     16490     16491     16490     16492     16490     16497     16497     16493
     16493     16496     16493     16494     16493     16495     16498     16499
     16498     16500     16498     16501     16498     16496     16501     16502
     16501     16509     16501     16503     16509     16510     16509     16511
     16509     16512     16503     16504     16504     16506     16504     16505
     16506     16507     16506     16508     16506     16518     16518     16519
     16518     16520     16518     16521     16521     16522     16521     16523
     16521     16524     16524     16525     16524     16526     16524     16527
     16527     16528     16527     16529     16527     16530     16530     16531
     16530     16532     16530     16533     16533     16534     16533     16535
     16533     16536     16536     16537     16536     16541     16536     16538
     16541     16542     16541     16543     16541     16538     16543     16544
     16543     16545     16543     16546     16546     16547     16546     16548
     16546     16549     16549     16550     16549     16551     16549     16552
     16552     16553     16552     16554     16552     16555     16555     16556
     16555     16557     16555     16558     16558     16559     16558     16560
     16558     16561     16538     16539     16538     16540     16512     16513
     16513     16515     16513     16514     16515     16516     16515     16517
     16515     16562     16562     16563     16562     16564     16562     16565
     16565     16566     16565     16567     16565     16568     16568     16569
     16568     16570     16568     16571     16571     16572     16571     16573
     16571     16574     16574     16575     16574     16576     16574     16577
     16577     16578     16577     16579     16577     16580     16580     16581
     16580     16582     16580     16583     16583     16584     16583     16585
     16583     16586     16586     16587     16586     16588     16586     16589
     16589     16590     16589     16591     16589     16592     16592     16593
     16592     16594     16592     16595     16595     16596     16595     16597
     16595     16598     16598     16599     16598     16600     16598     16601
     16602     16603     16602     16604     16602     16605     16602     16606
     16606     16607     16606     16608     16606     16609     16609     16610
     16609     16611     16609     16616     16616     16612     16612     16615
     16612     16613     16612     16614     16617     16618     16617     16619
     16617     16620     16617     16615     16620     16621     16620     16628
     16620     16622     16628     16629     16628     16630     16628     16631
     16622     16623     16623     16625     16623     16624     16625     16626
     16625     16627     16625     16637     16637     16638     16637     16639
     16637     16640     16640     16641     16640     16642     16640     16643
     16643     16644     16643     16645     16643     16646     16646     16647
     16646     16648     16646     16649     16649     16650     16649     16651
     16649     16652     16652     16653     16652     16654     16652     16655
     16655     16656     16655     16660     16655     16657     16660     16661
     16660     16662     16660     16657     16662     16663     16662     16664
     16662     16665     16665     16666     16665     16667     16665     16668
     16668     16669     16668     16670     16668     16671     16671     16672
     16671     16673     16671     16674     16674     16675     16674     16676
     16674     16677     16677     16678     16677     16679     16677     16680
     16657     16658     16657     16659     16631     16632     16632     16634
     16632     16633     16634     16635     16634     16636     16634     16681
     16681     16682     16681     16683     16681     16684     16684     16685
     16684     16686     16684     16687     16687     16688     16687     16689
     16687     16690     16690     16691     16690     16692     16690     16693
     16693     16694     16693     16695     16693     16696     16696     16697
     16696     16698     16696     16699     16699     16700     16699     16701
     16699     16702     16702     16703     16702     16704     16702     16705
     16705     16706     16705     16707     16705     16708     16708     16709
     16708     16710     16708     16711     16711     16712     16711     16713
     16711     16714     16714     16715     16714     16716     16714     16717
     16717     16718     16717     16719     16717     16720     16720     16721
     16720     16722     16720     16723     16728     16727     16727     16724
     16724     16725     16724     16726     16724     16729     16732     16731
     16731     16729     16729     16730     16729     16733     16733     16734
     16733     16735     16733     16740     16740     16736     16736     16739
     16736     16737     16736     16738     16741     16742     16741     16743
     16741     16744     16741     16739     16744     16745     16744     16752
     16744     16746     16752     16753     16752     16754     16752     16755
     16746     16747     16747     16749     16747     16748     16749     16750
     16749     16751     16749     16761     16761     16762     16761     16763
     16761     16764     16764     16765     16764     16766     16764     16767
     16767     16768     16767     16769     16767     16770     16770     16771
     16770     16772     16770     16773     16773     16774     16773     16775
     16773     16776     16776     16777     16776     16778     16776     16779
     16779     16780     16779     16784     16779     16781     16784     16785
     16784     16786     16784     16781     16786     16787     16786     16788
     16786     16789     16789     16790     16789     16791     16789     16792
     16792     16793     16792     16794     16792     16795     16795     16796
     16795     16797     16795     16798     16798     16799     16798     16800
     16798     16801     16801     16802     16801     16803     16801     16804
     16781     16782     16781     16783     16755     16756     16756     16758
     16756     16757     16758     16759     16758     16760     16758     16805
     16805     16806     16805     16807     16805     16808     16808     16809
     16808     16810     16808     16811     16811     16812     16811     16813
     16811     16814     16814     16815     16814     16816     16814     16817
     16817     16818     16817     16819     16817     16820     16820     16821
     16820     16822     16820     16823     16823     16824     16823     16825
     16823     16826     16826     16827     16826     16828     16826     16829
     16829     16830     16829     16831     16829     16832     16832     16833
     16832     16834     16832     16835     16835     16836     16835     16837
     16835     16838     16838     16839     16838     16840     16838     16841
     16841     16842     16841     16843     16841     16844     16844     16845
     16844     16846     16844     16847     16848     16849     16848     16850
     16848     16851     16848     16852     16852     16853     16852     16854
     16852     16855     16855     16856     16855     16857     16855     16862
     16862     16858     16858     16861     16858     16859     16858     16860
     16863     16864     16863     16865     16863     16866     16863     16861
     16866     16867     16866     16874     16866     16868     16874     16875
     16874     16876     16874     16877     16868     16869     16869     16871
     16869     16870     16871     16872     16871     16873     16871     16883
     16883     16884     16883     16885     16883     16886     16886     16887
     16886     16888     16886     16889     16889     16890     16889     16891
     16889     16892     16892     16893     16892     16894     16892     16895
     16895     16896     16895     16897     16895     16898     16898     16899
     16898     16900     16898     16901     16901     16902     16901     16906
     16901     16903     16906     16907     16906     16908     16906     16903
     16908     16909     16908     16910     16908     16911     16911     16912
     16911     16913     16911     16914     16914     16915     16914     16916
     16914     16917     16917     16918     16917     16919     16917     16920
     16920     16921     16920     16922     16920     16923     16923     16924
     16923     16925     16923     16926     16903     16904     16903     16905
     16877     16878     16878     16880     16878     16879     16880     16881
     16880     16882     16880     16927     16927     16928     16927     16929
     16927     16930     16930     16931     16930     16932     16930     16933
     16933     16934     16933     16935     16933     16936     16936     16937
     16936     16938     16936     16939     16939     16940     16939     16941
     16939     16942     16942     16943     16942     16944     16942     16945
     16945     16946     16945     16947     16945     16948     16948     16949
     16948     16950     16948     16951     16951     16952     16951     16953
     16951     16954     16954     16955     16954     16956     16954     16957
     16957     16958     16957     16959     16957     16960     16960     16961
     16960     16962     16960     16963     16963     16964     16963     16965
     16963     16966     16966     16967     16966     16968     16966     16969
     16970     16971     16970     16972     16970     16973     16970     16974
     16974     16975     16974     16976     16974     16977     16977     16978
     16977     16979     16977     16984     16984     16980     16980     16983
     16980     16981     16980     16982     16985     16986     16985     16987
     16985     16988     16985     16983     16988     16989     16988     16996
     16988     16990     16996     16997     16996     16998     16996     16999
     16990     16991     16991     16993     16991     16992     16993     16994
     16993     16995     16993     17005     17005     17006     17005     17007
     17005     17008     17008     17009     17008     17010     17008     17011
     17011     17012     17011     17013     17011     17014     17014     17015
     17014     17016     17014     17017     17017     17018     17017     17019
     17017     17020     17020     17021     17020     17022     17020     17023
     17023     17024     17023     17025     17025     17026     17025     17027
     17027     17028     17027     17029     17027     17030     17030     17031
     17030     17032     17030     17033     17033     17034     17033     17035
     17033     17036     17036     17037     17036     17038     17036     17039
     17039     17040     17039     17041     17039     17042     17042     17043
     17042     17044     17042     17045     16999     17000     17000     17002
     17000     17001     17002     17003     17002     17004     17002     17046
     17046     17047     17046     17048     17046     17049     17049     17050
     17049     17051     17049     17052     17052     17053     17052     17054
     17052     17055     17055     17056     17055     17057     17055     17058
     17058     17059     17058     17060     17058     17061     17061     17062
     17061     17063     17061     17064     17064     17065     17064     17066
     17066     17067     17066     17068     17068     17069     17068     17070
     17068     17071     17071     17072     17071     17073     17071     17074
     17074     17075     17074     17076     17074     17077     17077     17078
     17077     17079     17077     17080     17080     17081     17080     17082
     17080     17083     17083     17084     17083     17085     17083     17086
     17086     17087     17086     17088     17086     17089     17089     17090
     17089     17091     17089     17092     17097     17096     17096     17093
     17093     17094     17093     17095     17093     17098     17101     17100
     17100     17098     17098     17099     17098     17102     17102     17103
     17102     17104     17102     17109     17109     17105     17105     17108
     17105     17106     17105     17107     17110     17111     17110     17112
     17110     17113     17110     17108     17113     17114     17113     17121
     17113     17115     17121     17122     17121     17123     17121     17124
     17115     17116     17116     17118     17116     17117     17118     17119
     17118     17120     17118     17130     17130     17131     17130     17132
     17130     17133     17133     17134     17133     17135     17133     17136
     17136     17137     17136     17138     17136     17139     17139     17140
     17139     17141     17139     17142     17142     17143     17142     17144
     17142     17145     17145     17146     17145     17147     17145     17148
     17148     17149     17148     17150     17150     17151     17150     17152
     17152     17153     17152     17154     17152     17155     17155     17156
     17155     17157     17155     17158     17158     17159     17158     17160
     17158     17161     17161     17162     17161     17163     17161     17164
     17164     17165     17164     17166     17164     17167     17167     17168
     17167     17169     17167     17170     17124     17125     17125     17127
     17125     17126     17127     17128     17127     17129     17127     17171
     17171     17172     17171     17173     17171     17174     17174     17175
     17174     17176     17174     17177     17177     17178     17177     17179
     17177     17180     17180     17181     17180     17182     17180     17183
     17183     17184     17183     17185     17183     17186     17186     17187
     17186     17188     17186     17189     17189     17190     17189     17191
     17189     17192     17192     17193     17192     17194     17192     17195
     17195     17196     17195     17197     17195     17198     17198     17199
     17198     17200     17198     17201     17201     17202     17201     17203
     17201     17204     17204     17205     17204     17206     17204     17207
     17207     17208     17207     17209     17207     17210     17210     17211
     17210     17212     17210     17213     17214     17215     17214     17216
     17214     17217     17214     17218     17218     17219     17218     17220
     17218     17221     17221     17222     17221     17223     17221     17228
     17228     17224     17224     17227     17224     17225     17224     17226
     17229     17230     17229     17231     17229     17232     17229     17227
     17232     17233     17232     17240     17232     17234     17240     17241
     17240     17242     17240     17243     17234     17235     17235     17237
     17235     17236     17237     17238     17237     17239     17237     17249
     17249     17250     17249     17251     17249     17252     17252     17253
     17252     17254     17252     17255     17255     17256     17255     17257
     17255     17258     17258     17259     17258     17260     17258     17261
     17261     17262     17261     17263     17261     17264     17264     17265
     17264     17266     17264     17267     17267     17268     17267     17272
     17267     17269     17272     17273     17272     17274     17272     17269
     17274     17275     17274     17276     17274     17277     17277     17278
     17277     17279     17277     17280     17280     17281     17280     17282
     17280     17283     17283     17284     17283     17285     17283     17286
     17286     17287     17286     17288     17286     17289     17289     17290
     17289     17291     17289     17292     17269     17270     17269     17271
     17243     17244     17244     17246     17244     17245     17246     17247
     17246     17248     17246     17293     17293     17294     17293     17295
     17293     17296     17296     17297     17296     17298     17296     17299
     17299     17300     17299     17301     17299     17302     17302     17303
     17302     17304     17302     17305     17305     17306     17305     17307
     17305     17308     17308     17309     17308     17310     17308     17311
     17311     17312     17311     17313     17311     17314     17314     17315
     17314     17316     17314     17317     17317     17318     17317     17319
     17317     17320     17320     17321     17320     17322     17320     17323
     17323     17324     17323     17325     17323     17326     17326     17327
     17326     17328     17326     17329     17329     17330     17329     17331
     17329     17332     17332     17333     17332     17334     17332     17335
     17340     17339     17339     17336     17336     17337     17336     17338
     17336     17341     17344     17343     17343     17341     17341     17342
     17341     17345     17345     17346     17345     17347     17345     17352
     17352     17348     17348     17351     17348     17349     17348     17350
     17353     17354     17353     17355     17353     17356     17353     17351
     17356     17357     17356     17364     17356     17358     17364     17365
     17364     17366     17364     17367     17358     17359     17359     17361
     17359     17360     17361     17362     17361     17363     17361     17373
     17373     17374     17373     17375     17373     17376     17376     17377
     17376     17378     17376     17379     17379     17380     17379     17381
     17379     17382     17382     17383     17382     17384     17382     17385
     17385     17386     17385     17387     17385     17388     17388     17389
     17388     17390     17388     17391     17391     17392     17391     17393
     17393     17394     17393     17395     17395     17396     17395     17397
     17395     17398     17398     17399     17398     17400     17398     17401
     17401     17402     17401     17403     17401     17404     17404     17405
     17404     17406     17404     17407     17407     17408     17407     17409
     17407     17410     17410     17411     17410     17412     17410     17413
     17367     17368     17368     17370     17368     17369     17370     17371
     17370     17372     17370     17414     17414     17415     17414     17416
     17414     17417     17417     17418     17417     17419     17417     17420
     17420     17421     17420     17422     17420     17423     17423     17424
     17423     17425     17423     17426     17426     17427     17426     17428
     17426     17429     17429     17430     17429     17431     17429     17432
     17432     17433     17432     17434     17432     17435     17435     17436
     17435     17437     17435     17438     17438     17439     17438     17440
     17438     17441     17441     17442     17441     17443     17441     17444
     17444     17445     17444     17446     17444     17447     17447     17448
     17447     17449     17447     17450     17450     17451     17450     17452
     17450     17453     17453     17454     17453     17455     17453     17456
     17461     17460     17460     17457     17457     17458     17457     17459
     17457     17462     17465     17464     17464     17462     17462     17463
     17462     17466     17466     17467     17466     17468     17466     17473
     17473     17469     17469     17472     17469     17470     17469     17471
     17474     17475     17474     17476     17474     17477     17474     17472
     17477     17478     17477     17485     17477     17479     17485     17486
     17485     17487     17485     17488     17479     17480     17480     17482
     17480     17481     17482     17483     17482     17484     17482     17494
     17494     17495     17494     17496     17494     17497     17497     17498
     17497     17499     17497     17500     17500     17501     17500     17502
     17500     17503     17503     17504     17503     17505     17503     17506
     17506     17507     17506     17508     17506     17509     17509     17510
     17509     17511     17509     17512     17512     17513     17512     17517
     17512     17514     17517     17518     17517     17519     17517     17514
     17519     17520     17519     17521     17519     17522     17522     17523
     17522     17524     17522     17525     17525     17526     17525     17527
     17525     17528     17528     17529     17528     17530     17528     17531
     17531     17532     17531     17533     17531     17534     17534     17535
     17534     17536     17534     17537     17514     17515     17514     17516
     17488     17489     17489     17491     17489     17490     17491     17492
     17491     17493     17491     17538     17538     17539     17538     17540
     17538     17541     17541     17542     17541     17543     17541     17544
     17544     17545     17544     17546     17544     17547     17547     17548
     17547     17549     17547     17550     17550     17551     17550     17552
     17550     17553     17553     17554     17553     17555     17553     17556
     17556     17557     17556     17558     17556     17559     17559     17560
     17559     17561     17559     17562     17562     17563     17562     17564
     17562     17565     17565     17566     17565     17567     17565     17568
     17568     17569     17568     17570     17568     17571     17571     17572
     17571     17573     17571     17574     17574     17575     17574     17576
     17574     17577     17577     17578     17577     17579     17577     17580
     17581     17582     17581     17583     17581     17584     17581     17585
     17585     17586     17585     17587     17585     17588     17588     17589
     17588     17590     17588     17595     17595     17591     17591     17594
     17591     17592     17591     17593     17596     17597     17596     17598
     17596     17599     17596     17594     17599     17600     17599     17607
     17599     17601     17607     17608     17607     17609     17607     17610
     17601     17602     17602     17604     17602     17603     17604     17605
     17604     17606     17604     17616     17616     17617     17616     17618
     17616     17619     17619     17620     17619     17621     17619     17622
     17622     17623     17622     17624     17622     17625     17625     17626
     17625     17627     17625     17628     17628     17629     17628     17630
     17628     17631     17631     17632     17631     17633     17631     17634
     17634     17635     17634     17639     17634     17636     17639     17640
     17639     17641     17639     17636     17641     17642     17641     17643
     17641     17644     17644     17645     17644     17646     17644     17647
     17647     17648     17647     17649     17647     17650     17650     17651
     17650     17652     17650     17653     17653     17654     17653     17655
     17653     17656     17656     17657     17656     17658     17656     17659
     17636     17637     17636     17638     17610     17611     17611     17613
     17611     17612     17613     17614     17613     17615     17613     17660
     17660     17661     17660     17662     17660     17663     17663     17664
     17663     17665     17663     17666     17666     17667     17666     17668
     17666     17669     17669     17670     17669     17671     17669     17672
     17672     17673     17672     17674     17672     17675     17675     17676
     17675     17677     17675     17678     17678     17679     17678     17680
     17678     17681     17681     17682     17681     17683     17681     17684
     17684     17685     17684     17686     17684     17687     17687     17688
     17687     17689     17687     17690     17690     17691     17690     17692
     17690     17693     17693     17694     17693     17695     17693     17696
     17696     17697     17696     17698     17696     17699     17700     17701
     17700     17702     17700     17703     17700     17704     17704     17705
     17704     17706     17704     17707     17707     17708     17707     17709
     17707     17714     17714     17710     17710     17713     17710     17711
     17710     17712     17715     17716     17715     17717     17715     17718
     17715     17713     17718     17719     17718     17726     17718     17720
     17726     17727     17726     17728     17726     17729     17720     17721
     17721     17723     17721     17722     17723     17724     17723     17725
     17723     17735     17735     17736     17735     17737     17735     17738
     17738     17739     17738     17740     17738     17741     17741     17742
     17741     17743     17741     17744     17744     17745     17744     17746
     17744     17747     17747     17748     17747     17749     17747     17750
     17750     17751     17750     17752     17750     17753     17753     17754
     17753     17755     17755     17756     17755     17757     17757     17758
     17757     17759     17757     17760     17760     17761     17760     17762
     17760     17763     17763     17764     17763     17765     17763     17766
     17766     17767     17766     17768     17766     17769     17769     17770
     17769     17771     17769     17772     17772     17773     17772     17774
     17772     17775     17729     17730     17730     17732     17730     17731
     17732     17733     17732     17734     17732     17776     17776     17777
     17776     17778     17776     17779     17779     17780     17779     17781
     17779     17782     17782     17783     17782     17784     17782     17785
     17785     17786     17785     17787     17785     17788     17788     17789
     17788     17790     17788     17791     17791     17792     17791     17793
     17791     17794     17794     17795     17794     17796     17796     17797
     17796     17798     17798     17799     17798     17800     17798     17801
     17801     17802     17801     17803     17801     17804     17804     17805
     17804     17806     17804     17807     17807     17808     17807     17809
     17807     17810     17810     17811     17810     17812     17810     17813
     17813     17814     17813     17815     17813     17816     17816     17817
     17816     17818     17816     17819     17819     17820     17819     17821
     17819     17822     17823     17824     17823     17825     17823     17826
     17823     17827     17827     17828     17827     17829     17827     17830
     17830     17831     17830     17832     17830     17837     17837     17833
     17833     17836     17833     17834     17833     17835     17838     17839
     17838     17840     17838     17841     17838     17836     17841     17842
     17841     17849     17841     17843     17849     17850     17849     17851
     17849     17852     17843     17844     17844     17846     17844     17845
     17846     17847     17846     17848     17846     17858     17858     17859
     17858     17860     17858     17861     17861     17862     17861     17863
     17861     17864     17864     17865     17864     17866     17864     17867
     17867     17868     17867     17869     17867     17870     17870     17871
     17870     17872     17870     17873     17873     17874     17873     17875
     17873     17876     17876     17877     17876     17881     17876     17878
     17881     17882     17881     17883     17881     17878     17883     17884
     17883     17885     17883     17886     17886     17887     17886     17888
     17886     17889     17889     17890     17889     17891     17889     17892
     17892     17893     17892     17894     17892     17895     17895     17896
     17895     17897     17895     17898     17898     17899     17898     17900
     17898     17901     17878     17879     17878     17880     17852     17853
     17853     17855     17853     17854     17855     17856     17855     17857
     17855     17902     17902     17903     17902     17904     17902     17905
     17905     17906     17905     17907     17905     17908     17908     17909
     17908     17910     17908     17911     17911     17912     17911     17913
     17911     17914     17914     17915     17914     17916     17914     17917
     17917     17918     17917     17919     17917     17920     17920     17921
     17920     17922     17920     17923     17923     17924     17923     17925
     17923     17926     17926     17927     17926     17928     17926     17929
     17929     17930     17929     17931     17929     17932     17932     17933
     17932     17934     17932     17935     17935     17936     17935     17937
     17935     17938     17938     17939     17938     17940     17938     17941
     17941     17942     17941     17943     17941     17944     17945     17946
     17945     17947     17945     17948     17945     17949     17949     17950
     17949     17951     17949     17952     17952     17953     17952     17954
     17952     17959     17959     17955     17955     17958     17955     17956
     17955     17957     17960     17961     17960     17962     17960     17963
     17960     17958     17963     17964     17963     17971     17963     17965
     17971     17972     17971     17973     17971     17974     17965     17966
     17966     17968     17966     17967     17968     17969     17968     17970
     17968     17980     17980     17981     17980     17982     17980     17983
     17983     17984     17983     17985     17983     17986     17986     17987
     17986     17988     17986     17989     17989     17990     17989     17991
     17989     17992     17992     17993     17992     17994     17992     17995
     17995     17996     17995     17997     17995     17998     17998     17999
     17998     18003     17998     18000     18003     18004     18003     18005
     18003     18000     18005     18006     18005     18007     18005     18008
     18008     18009     18008     18010     18008     18011     18011     18012
     18011     18013     18011     18014     18014     18015     18014     18016
     18014     18017     18017     18018     18017     18019     18017     18020
     18020     18021     18020     18022     18020     18023     18000     18001
     18000     18002     17974     17975     17975     17977     17975     17976
     17977     17978     17977     17979     17977     18024     18024     18025
     18024     18026     18024     18027     18027     18028     18027     18029
     18027     18030     18030     18031     18030     18032     18030     18033
     18033     18034     18033     18035     18033     18036     18036     18037
     18036     18038     18036     18039     18039     18040     18039     18041
     18039     18042     18042     18043     18042     18044     18042     18045
     18045     18046     18045     18047     18045     18048     18048     18049
     18048     18050     18048     18051     18051     18052     18051     18053
     18051     18054     18054     18055     18054     18056     18054     18057
     18057     18058     18057     18059     18057     18060     18060     18061
     18060     18062     18060     18063     18063     18064     18063     18065
     18063     18066     18067     18068     18067     18069     18067     18070
     18067     18071     18071     18072     18071     18073     18071     18074
     18074     18075     18074     18076     18074     18081     18081     18077
     18077     18080     18077     18078     18077     18079     18082     18083
     18082     18084     18082     18085     18082     18080     18085     18086
     18085     18093     18085     18087     18093     18094     18093     18095
     18093     18096     18087     18088     18088     18090     18088     18089
     18090     18091     18090     18092     18090     18102     18102     18103
     18102     18104     18102     18105     18105     18106     18105     18107
     18105     18108     18108     18109     18108     18110     18108     18111
     18111     18112     18111     18113     18111     18114     18114     18115
     18114     18116     18114     18117     18117     18118     18117     18119
     18117     18120     18120     18121     18120     18125     18120     18122
     18125     18126     18125     18127     18125     18122     18127     18128
     18127     18129     18127     18130     18130     18131     18130     18132
     18130     18133     18133     18134     18133     18135     18133     18136
     18136     18137     18136     18138     18136     18139     18139     18140
     18139     18141     18139     18142     18142     18143     18142     18144
     18142     18145     18122     18123     18122     18124     18096     18097
     18097     18099     18097     18098     18099     18100     18099     18101
     18099     18146     18146     18147     18146     18148     18146     18149
     18149     18150     18149     18151     18149     18152     18152     18153
     18152     18154     18152     18155     18155     18156     18155     18157
     18155     18158     18158     18159     18158     18160     18158     18161
     18161     18162     18161     18163     18161     18164     18164     18165
     18164     18166     18164     18167     18167     18168     18167     18169
     18167     18170     18170     18171     18170     18172     18170     18173
     18173     18174     18173     18175     18173     18176     18176     18177
     18176     18178     18176     18179     18179     18180     18179     18181
     18179     18182     18182     18183     18182     18184     18182     18185
     18186     18187     18186     18188     18186     18189     18186     18190
     18190     18191     18190     18192     18190     18193     18193     18194
     18193     18195     18193     18200     18200     18196     18196     18199
     18196     18197     18196     18198     18201     18202     18201     18203
     18201     18204     18201     18199     18204     18205     18204     18212
     18204     18206     18212     18213     18212     18214     18212     18215
     18206     18207     18207     18209     18207     18208     18209     18210
     18209     18211     18209     18221     18221     18222     18221     18223
     18221     18224     18224     18225     18224     18226     18224     18227
     18227     18228     18227     18229     18227     18230     18230     18231
     18230     18232     18230     18233     18233     18234     18233     18235
     18233     18236     18236     18237     18236     18238     18236     18239
     18239     18240     18239     18244     18239     18241     18244     18245
     18244     18246     18244     18241     18246     18247     18246     18248
     18246     18249     18249     18250     18249     18251     18249     18252
     18252     18253     18252     18254     18252     18255     18255     18256
     18255     18257     18255     18258     18258     18259     18258     18260
     18258     18261     18261     18262     18261     18263     18261     18264
     18241     18242     18241     18243     18215     18216     18216     18218
     18216     18217     18218     18219     18218     18220     18218     18265
     18265     18266     18265     18267     18265     18268     18268     18269
     18268     18270     18268     18271     18271     18272     18271     18273
     18271     18274     18274     18275     18274     18276     18274     18277
     18277     18278     18277     18279     18277     18280     18280     18281
     18280     18282     18280     18283     18283     18284     18283     18285
     18283     18286     18286     18287     18286     18288     18286     18289
     18289     18290     18289     18291     18289     18292     18292     18293
     18292     18294     18292     18295     18295     18296     18295     18297
     18295     18298     18298     18299     18298     18300     18298     18301
     18301     18302     18301     18303     18301     18304     18304     18305
     18304     18306     18304     18307     18308     18309     18308     18310
     18308     18311     18308     18312     18312     18313     18312     18314
     18312     18315     18315     18316     18315     18317     18315     18322
     18322     18318     18318     18321     18318     18319     18318     18320
     18323     18324     18323     18325     18323     18326     18323     18321
     18326     18327     18326     18334     18326     18328     18334     18335
     18334     18336     18334     18337     18328     18329     18329     18331
     18329     18330     18331     18332     18331     18333     18331     18343
     18343     18344     18343     18345     18343     18346     18346     18347
     18346     18348     18346     18349     18349     18350     18349     18351
     18349     18352     18352     18353     18352     18354     18352     18355
     18355     18356     18355     18357     18355     18358     18358     18359
     18358     18360     18358     18361     18361     18362     18361     18363
     18363     18364     18363     18365     18365     18366     18365     18367
     18365     18368     18368     18369     18368     18370     18368     18371
     18371     18372     18371     18373     18371     18374     18374     18375
     18374     18376     18374     18377     18377     18378     18377     18379
     18377     18380     18380     18381     18380     18382     18380     18383
     18383     18384     18383     18385     18383     18386     18386     18387
     18386     18388     18386     18389     18337     18338     18338     18340
     18338     18339     18340     18341     18340     18342     18340     18390
     18390     18391     18390     18392     18390     18393     18393     18394
     18393     18395     18393     18396     18396     18397     18396     18398
     18396     18399     18399     18400     18399     18401     18399     18402
     18402     18403     18402     18404     18402     18405     18405     18406
     18405     18407     18405     18408     18408     18409     18408     18410
     18408     18411     18411     18412     18411     18413     18411     18414
     18414     18415     18414     18416     18414     18417     18417     18418
     18417     18419     18417     18420     18420     18421     18420     18422
     18420     18423     18423     18424     18423     18425     18423     18426
     18426     18427     18426     18428     18426     18429     18429     18430
     18429     18431     18429     18432     18433     18434     18433     18435
     18433     18436     18433     18437     18437     18438     18437     18439
     18437     18440     18440     18441     18440     18442     18440     18447
     18447     18443     18443     18446     18443     18444     18443     18445
     18448     18449     18448     18450     18448     18451     18448     18446
     18451     18452     18451     18459     18451     18453     18459     18460
     18459     18461     18459     18462     18453     18454     18454     18456
     18454     18455     18456     18457     18456     18458     18456     18468
     18468     18469     18468     18470     18468     18471     18471     18472
     18471     18473     18471     18474     18474     18475     18474     18476
     18474     18477     18477     18478     18477     18479     18477     18480
     18480     18481     18480     18482     18480     18483     18483     18484
     18483     18485     18483     18486     18486     18487     18486     18491
     18486     18488     18491     18492     18491     18493     18491     18488
     18493     18494     18493     18495     18493     18496     18496     18497
     18496     18498     18496     18499     18499     18500     18499     18501
     18499     18502     18502     18503     18502     18504     18502     18505
     18505     18506     18505     18507     18505     18508     18508     18509
     18508     18510     18508     18511     18488     18489     18488     18490
     18462     18463     18463     18465     18463     18464     18465     18466
     18465     18467     18465     18512     18512     18513     18512     18514
     18512     18515     18515     18516     18515     18517     18515     18518
     18518     18519     18518     18520     18518     18521     18521     18522
     18521     18523     18521     18524     18524     18525     18524     18526
     18524     18527     18527     18528     18527     18529     18527     18530
     18530     18531     18530     18532     18530     18533     18533     18534
     18533     18535     18533     18536     18536     18537     18536     18538
     18536     18539     18539     18540     18539     18541     18539     18542
     18542     18543     18542     18544     18542     18545     18545     18546
     18545     18547     18545     18548     18548     18549     18548     18550
     18548     18551     18551     18552     18551     18553     18551     18554
     18555     18556     18555     18557     18555     18558     18555     18559
     18559     18560     18559     18561     18559     18562     18562     18563
     18562     18564     18562     18569     18569     18565     18565     18568
     18565     18566     18565     18567     18570     18571     18570     18572
     18570     18573     18570     18568     18573     18574     18573     18581
     18573     18575     18581     18582     18581     18583     18581     18584
     18575     18576     18576     18578     18576     18577     18578     18579
     18578     18580     18578     18590     18590     18591     18590     18592
     18590     18593     18593     18594     18593     18595     18593     18596
     18596     18597     18596     18598     18596     18599     18599     18600
     18599     18601     18599     18602     18602     18603     18602     18604
     18602     18605     18605     18606     18605     18607     18605     18608
     18608     18609     18608     18613     18608     18610     18613     18614
     18613     18615     18613     18610     18615     18616     18615     18617
     18615     18618     18618     18619     18618     18620     18618     18621
     18621     18622     18621     18623     18621     18624     18624     18625
     18624     18626     18624     18627     18627     18628     18627     18629
     18627     18630     18630     18631     18630     18632     18630     18633
     18610     18611     18610     18612     18584     18585     18585     18587
     18585     18586     18587     18588     18587     18589     18587     18634
     18634     18635     18634     18636     18634     18637     18637     18638
     18637     18639     18637     18640     18640     18641     18640     18642
     18640     18643     18643     18644     18643     18645     18643     18646
     18646     18647     18646     18648     18646     18649     18649     18650
     18649     18651     18649     18652     18652     18653     18652     18654
     18652     18655     18655     18656     18655     18657     18655     18658
     18658     18659     18658     18660     18658     18661     18661     18662
     18661     18663     18661     18664     18664     18665     18664     18666
     18664     18667     18667     18668     18667     18669     18667     18670
     18670     18671     18670     18672     18670     18673     18673     18674
     18673     18675     18673     18676     18677     18678     18677     18679
     18677     18680     18677     18681     18681     18682     18681     18683
     18681     18684     18684     18685     18684     18686     18684     18691
     18691     18687     18687     18690     18687     18688     18687     18689
     18692     18693     18692     18694     18692     18695     18692     18690
     18695     18696     18695     18703     18695     18697     18703     18704
     18703     18705     18703     18706     18697     18698     18698     18700
     18698     18699     18700     18701     18700     18702     18700     18712
     18712     18713     18712     18714     18712     18715     18715     18716
     18715     18717     18715     18718     18718     18719     18718     18720
     18718     18721     18721     18722     18721     18723     18721     18724
     18724     18725     18724     18726     18724     18727     18727     18728
     18727     18729     18727     18730     18730     18731     18730     18735
     18730     18732     18735     18736     18735     18737     18735     18732
     18737     18738     18737     18739     18737     18740     18740     18741
     18740     18742     18740     18743     18743     18744     18743     18745
     18743     18746     18746     18747     18746     18748     18746     18749
     18749     18750     18749     18751     18749     18752     18752     18753
     18752     18754     18752     18755     18732     18733     18732     18734
     18706     18707     18707     18709     18707     18708     18709     18710
     18709     18711     18709     18756     18756     18757     18756     18758
     18756     18759     18759     18760     18759     18761     18759     18762
     18762     18763     18762     18764     18762     18765     18765     18766
     18765     18767     18765     18768     18768     18769     18768     18770
     18768     18771     18771     18772     18771     18773     18771     18774
     18774     18775     18774     18776     18774     18777     18777     18778
     18777     18779     18777     18780     18780     18781     18780     18782
     18780     18783     18783     18784     18783     18785     18783     18786
     18786     18787     18786     18788     18786     18789     18789     18790
     18789     18791     18789     18792     18792     18793     18792     18794
     18792     18795     18795     18796     18795     18797     18795     18798
     18799     18800     18799     18801     18799     18802     18799     18803
     18803     18804     18803     18805     18803     18806     18806     18807
     18806     18808     18806     18813     18813     18809     18809     18812
     18809     18810     18809     18811     18814     18815     18814     18816
     18814     18817     18814     18812     18817     18818     18817     18825
     18817     18819     18825     18826     18825     18827     18825     18828
     18819     18820     18820     18822     18820     18821     18822     18823
     18822     18824     18822     18834     18834     18835     18834     18836
     18834     18837     18837     18838     18837     18839     18837     18840
     18840     18841     18840     18842     18840     18843     18843     18844
     18843     18845     18843     18846     18846     18847     18846     18848
     18846     18849     18849     18850     18849     18851     18849     18852
     18852     18853     18852     18857     18852     18854     18857     18858
     18857     18859     18857     18854     18859     18860     18859     18861
     18859     18862     18862     18863     18862     18864     18862     18865
     18865     18866     18865     18867     18865     18868     18868     18869
     18868     18870     18868     18871     18871     18872     18871     18873
     18871     18874     18874     18875     18874     18876     18874     18877
     18854     18855     18854     18856     18828     18829     18829     18831
     18829     18830     18831     18832     18831     18833     18831     18878
     18878     18879     18878     18880     18878     18881     18881     18882
     18881     18883     18881     18884     18884     18885     18884     18886
     18884     18887     18887     18888     18887     18889     18887     18890
     18890     18891     18890     18892     18890     18893     18893     18894
     18893     18895     18893     18896     18896     18897     18896     18898
     18896     18899     18899     18900     18899     18901     18899     18902
     18902     18903     18902     18904     18902     18905     18905     18906
     18905     18907     18905     18908     18908     18909     18908     18910
     18908     18911     18911     18912     18911     18913     18911     18914
     18914     18915     18914     18916     18914     18917     18917     18918
     18917     18919     18917     18920     18921     18922     18921     18923
     18921     18924     18921     18925     18925     18926     18925     18927
     18925     18928     18928     18929     18928     18930     18928     18935
     18935     18931     18931     18934     18931     18932     18931     18933
     18936     18937     18936     18938     18936     18939     18936     18934
     18939     18940     18939     18947     18939     18941     18947     18948
     18947     18949     18947     18950     18941     18942     18942     18944
     18942     18943     18944     18945     18944     18946     18944     18956
     18956     18957     18956     18958     18956     18959     18959     18960
     18959     18961     18959     18962     18962     18963     18962     18964
     18962     18965     18965     18966     18965     18967     18965     18968
     18968     18969     18968     18970     18968     18971     18971     18972
     18971     18973     18971     18974     18974     18975     18974     18979
     18974     18976     18979     18980     18979     18981     18979     18976
     18981     18982     18981     18983     18981     18984     18984     18985
     18984     18986     18984     18987     18987     18988     18987     18989
     18987     18990     18990     18991     18990     18992     18990     18993
     18993     18994     18993     18995     18993     18996     18996     18997
     18996     18998     18996     18999     18976     18977     18976     18978
     18950     18951     18951     18953     18951     18952     18953     18954
     18953     18955     18953     19000     19000     19001     19000     19002
     19000     19003     19003     19004     19003     19005     19003     19006
     19006     19007     19006     19008     19006     19009     19009     19010
     19009     19011     19009     19012     19012     19013     19012     19014
     19012     19015     19015     19016     19015     19017     19015     19018
     19018     19019     19018     19020     19018     19021     19021     19022
     19021     19023     19021     19024     19024     19025     19024     19026
     19024     19027     19027     19028     19027     19029     19027     19030
     19030     19031     19030     19032     19030     19033     19033     19034
     19033     19035     19033     19036     19036     19037     19036     19038
     19036     19039     19039     19040     19039     19041     19039     19042
     19043     19044     19043     19045     19043     19046     19043     19047
     19047     19048     19047     19049     19047     19050     19050     19051
     19050     19052     19050     19057     19057     19053     19053     19056
     19053     19054     19053     19055     19058     19059     19058     19060
     19058     19061     19058     19056     19061     19062     19061     19069
     19061     19063     19069     19070     19069     19071     19069     19072
     19063     19064     19064     19066     19064     19065     19066     19067
     19066     19068     19066     19078     19078     19079     19078     19080
     19078     19081     19081     19082     19081     19083     19081     19084
     19084     19085     19084     19086     19084     19087     19087     19088
     19087     19089     19087     19090     19090     19091     19090     19092
     19090     19093     19093     19094     19093     19095     19093     19096
     19096     19097     19096     19101     19096     19098     19101     19102
     19101     19103     19101     19098     19103     19104     19103     19105
     19103     19106     19106     19107     19106     19108     19106     19109
     19109     19110     19109     19111     19109     19112     19112     19113
     19112     19114     19112     19115     19115     19116     19115     19117
     19115     19118     19118     19119     19118     19120     19118     19121
     19098     19099     19098     19100     19072     19073     19073     19075
     19073     19074     19075     19076     19075     19077     19075     19122
     19122     19123     19122     19124     19122     19125     19125     19126
     19125     19127     19125     19128     19128     19129     19128     19130
     19128     19131     19131     19132     19131     19133     19131     19134
     19134     19135     19134     19136     19134     19137     19137     19138
     19137     19139     19137     19140     19140     19141     19140     19142
     19140     19143     19143     19144     19143     19145     19143     19146
     19146     19147     19146     19148     19146     19149     19149     19150
     19149     19151     19149     19152     19152     19153     19152     19154
     19152     19155     19155     19156     19155     19157     19155     19158
     19158     19159     19158     19160     19158     19161     19161     19162
     19161     19163     19161     19164     19165     19166     19165     19167
     19165     19168     19165     19169     19169     19170     19169     19171
     19169     19172     19172     19173     19172     19174     19172     19179
     19179     19175     19175     19178     19175     19176     19175     19177
     19180     19181     19180     19182     19180     19183     19180     19178
     19183     19184     19183     19191     19183     19185     19191     19192
     19191     19193     19191     19194     19185     19186     19186     19188
     19186     19187     19188     19189     19188     19190     19188     19200
     19200     19201     19200     19202     19200     19203     19203     19204
     19203     19205     19203     19206     19206     19207     19206     19208
     19206     19209     19209     19210     19209     19211     19209     19212
     19212     19213     19212     19214     19212     19215     19215     19216
     19215     19217     19215     19218     19218     19219     19218     19220
     19220     19221     19220     19222     19222     19223     19222     19224
     19222     19225     19225     19226     19225     19227     19225     19228
     19228     19229     19228     19230     19228     19231     19231     19232
     19231     19233     19231     19234     19234     19235     19234     19236
     19234     19237     19237     19238     19237     19239     19237     19240
     19240     19241     19240     19242     19240     19243     19243     19244
     19243     19245     19243     19246     19194     19195     19195     19197
     19195     19196     19197     19198     19197     19199     19197     19247
     19247     19248     19247     19249     19247     19250     19250     19251
     19250     19252     19250     19253     19253     19254     19253     19255
     19253     19256     19256     19257     19256     19258     19256     19259
     19259     19260     19259     19261     19259     19262     19262     19263
     19262     19264     19262     19265     19265     19266     19265     19267
     19265     19268     19268     19269     19268     19270     19268     19271
     19271     19272     19271     19273     19271     19274     19274     19275
     19274     19276     19274     19277     19277     19278     19277     19279
     19277     19280     19280     19281     19280     19282     19280     19283
     19283     19284     19283     19285     19283     19286     19286     19287
     19286     19288     19286     19289     19290     19291     19290     19292
     19290     19293     19290     19294     19294     19295     19294     19296
     19294     19297     19297     19298     19297     19299     19297     19304
     19304     19300     19300     19303     19300     19301     19300     19302
     19305     19306     19305     19307     19305     19308     19305     19303
     19308     19309     19308     19316     19308     19310     19316     19317
     19316     19318     19316     19319     19310     19311     19311     19313
     19311     19312     19313     19314     19313     19315     19313     19325
     19325     19326     19325     19327     19325     19328     19328     19329
     19328     19330     19328     19331     19331     19332     19331     19333
     19331     19334     19334     19335     19334     19336     19334     19337
     19337     19338     19337     19339     19337     19340     19340     19341
     19340     19342     19340     19343     19343     19344     19343     19348
     19343     19345     19348     19349     19348     19350     19348     19345
     19350     19351     19350     19352     19350     19353     19353     19354
     19353     19355     19353     19356     19356     19357     19356     19358
     19356     19359     19359     19360     19359     19361     19359     19362
     19362     19363     19362     19364     19362     19365     19365     19366
     19365     19367     19365     19368     19345     19346     19345     19347
     19319     19320     19320     19322     19320     19321     19322     19323
     19322     19324     19322     19369     19369     19370     19369     19371
     19369     19372     19372     19373     19372     19374     19372     19375
     19375     19376     19375     19377     19375     19378     19378     19379
     19378     19380     19378     19381     19381     19382     19381     19383
     19381     19384     19384     19385     19384     19386     19384     19387
     19387     19388     19387     19389     19387     19390     19390     19391
     19390     19392     19390     19393     19393     19394     19393     19395
     19393     19396     19396     19397     19396     19398     19396     19399
     19399     19400     19399     19401     19399     19402     19402     19403
     19402     19404     19402     19405     19405     19406     19405     19407
     19405     19408     19408     19409     19408     19410     19408     19411
     19412     19413     19412     19414     19412     19415     19412     19416
     19416     19417     19416     19418     19416     19419     19419     19420
     19419     19421     19419     19426     19426     19422     19422     19425
     19422     19423     19422     19424     19427     19428     19427     19429
     19427     19430     19427     19425     19430     19431     19430     19438
     19430     19432     19438     19439     19438     19440     19438     19441
     19432     19433     19433     19435     19433     19434     19435     19436
     19435     19437     19435     19447     19447     19448     19447     19449
     19447     19450     19450     19451     19450     19452     19450     19453
     19453     19454     19453     19455     19453     19456     19456     19457
     19456     19458     19456     19459     19459     19460     19459     19461
     19459     19462     19462     19463     19462     19464     19462     19465
     19465     19466     19465     19467     19467     19468     19467     19469
     19469     19470     19469     19471     19469     19472     19472     19473
     19472     19474     19472     19475     19475     19476     19475     19477
     19475     19478     19478     19479     19478     19480     19478     19481
     19481     19482     19481     19483     19481     19484     19484     19485
     19484     19486     19484     19487     19487     19488     19487     19489
     19487     19490     19490     19491     19490     19492     19490     19493
     19441     19442     19442     19444     19442     19443     19444     19445
     19444     19446     19444     19494     19494     19495     19494     19496
     19494     19497     19497     19498     19497     19499     19497     19500
     19500     19501     19500     19502     19500     19503     19503     19504
     19503     19505     19503     19506     19506     19507     19506     19508
     19506     19509     19509     19510     19509     19511     19509     19512
     19512     19513     19512     19514     19512     19515     19515     19516
     19515     19517     19515     19518     19518     19519     19518     19520
     19518     19521     19521     19522     19521     19523     19521     19524
     19524     19525     19524     19526     19524     19527     19527     19528
     19527     19529     19527     19530     19530     19531     19530     19532
     19530     19533     19533     19534     19533     19535     19533     19536
     19537     19538     19537     19539     19537     19540     19537     19541
     19541     19542     19541     19543     19541     19544     19544     19545
     19544     19546     19544     19551     19551     19547     19547     19550
     19547     19548     19547     19549     19552     19553     19552     19554
     19552     19555     19552     19550     19555     19556     19555     19563
     19555     19557     19563     19564     19563     19565     19563     19566
     19557     19558     19558     19560     19558     19559     19560     19561
     19560     19562     19560     19572     19572     19573     19572     19574
     19572     19575     19575     19576     19575     19577     19575     19578
     19578     19579     19578     19580     19578     19581     19581     19582
     19581     19583     19581     19584     19584     19585     19584     19586
     19584     19587     19587     19588     19587     19589     19587     19590
     19590     19591     19590     19595     19590     19592     19595     19596
     19595     19597     19595     19592     19597     19598     19597     19599
     19597     19600     19600     19601     19600     19602     19600     19603
     19603     19604     19603     19605     19603     19606     19606     19607
     19606     19608     19606     19609     19609     19610     19609     19611
     19609     19612     19612     19613     19612     19614     19612     19615
     19592     19593     19592     19594     19566     19567     19567     19569
     19567     19568     19569     19570     19569     19571     19569     19616
     19616     19617     19616     19618     19616     19619     19619     19620
     19619     19621     19619     19622     19622     19623     19622     19624
     19622     19625     19625     19626     19625     19627     19625     19628
     19628     19629     19628     19630     19628     19631     19631     19632
     19631     19633     19631     19634     19634     19635     19634     19636
     19634     19637     19637     19638     19637     19639     19637     19640
     19640     19641     19640     19642     19640     19643     19643     19644
     19643     19645     19643     19646     19646     19647     19646     19648
     19646     19649     19649     19650     19649     19651     19649     19652
     19652     19653     19652     19654     19652     19655     19655     19656
     19655     19657     19655     19658     19659     19660     19659     19661
     19659     19662     19659     19663     19663     19664     19663     19665
     19663     19666     19666     19667     19666     19668     19666     19673
     19673     19669     19669     19672     19669     19670     19669     19671
     19674     19675     19674     19676     19674     19677     19674     19672
     19677     19678     19677     19685     19677     19679     19685     19686
     19685     19687     19685     19688     19679     19680     19680     19682
     19680     19681     19682     19683     19682     19684     19682     19694
     19694     19695     19694     19696     19694     19697     19697     19698
     19697     19699     19697     19700     19700     19701     19700     19702
     19700     19703     19703     19704     19703     19705     19703     19706
     19706     19707     19706     19708     19706     19709     19709     19710
     19709     19711     19709     19712     19712     19713     19712     19717
     19712     19714     19717     19718     19717     19719     19717     19714
     19719     19720     19719     19721     19719     19722     19722     19723
     19722     19724     19722     19725     19725     19726     19725     19727
     19725     19728     19728     19729     19728     19730     19728     19731
     19731     19732     19731     19733     19731     19734     19734     19735
     19734     19736     19734     19737     19714     19715     19714     19716
     19688     19689     19689     19691     19689     19690     19691     19692
     19691     19693     19691     19738     19738     19739     19738     19740
     19738     19741     19741     19742     19741     19743     19741     19744
     19744     19745     19744     19746     19744     19747     19747     19748
     19747     19749     19747     19750     19750     19751     19750     19752
     19750     19753     19753     19754     19753     19755     19753     19756
     19756     19757     19756     19758     19756     19759     19759     19760
     19759     19761     19759     19762     19762     19763     19762     19764
     19762     19765     19765     19766     19765     19767     19765     19768
     19768     19769     19768     19770     19768     19771     19771     19772
     19771     19773     19771     19774     19774     19775     19774     19776
     19774     19777     19778     19779     19778     19780     19778     19781
     19778     19782     19782     19783     19782     19784     19782     19785
     19785     19786     19785     19787     19785     19792     19792     19788
     19788     19791     19788     19789     19788     19790     19793     19794
     19793     19795     19793     19796     19793     19791     19796     19797
     19796     19804     19796     19798     19804     19805     19804     19806
     19804     19807     19798     19799     19799     19801     19799     19800
     19801     19802     19801     19803     19801     19813     19813     19814
     19813     19815     19813     19816     19816     19817     19816     19818
     19816     19819     19819     19820     19819     19821     19819     19822
     19822     19823     19822     19824     19822     19825     19825     19826
     19825     19827     19825     19828     19828     19829     19828     19830
     19828     19831     19831     19832     19831     19836     19831     19833
     19836     19837     19836     19838     19836     19833     19838     19839
     19838     19840     19838     19841     19841     19842     19841     19843
     19841     19844     19844     19845     19844     19846     19844     19847
     19847     19848     19847     19849     19847     19850     19850     19851
     19850     19852     19850     19853     19853     19854     19853     19855
     19853     19856     19833     19834     19833     19835     19807     19808
     19808     19810     19808     19809     19810     19811     19810     19812
     19810     19857     19857     19858     19857     19859     19857     19860
     19860     19861     19860     19862     19860     19863     19863     19864
     19863     19865     19863     19866     19866     19867     19866     19868
     19866     19869     19869     19870     19869     19871     19869     19872
     19872     19873     19872     19874     19872     19875     19875     19876
     19875     19877     19875     19878     19878     19879     19878     19880
     19878     19881     19881     19882     19881     19883     19881     19884
     19884     19885     19884     19886     19884     19887     19887     19888
     19887     19889     19887     19890     19890     19891     19890     19892
     19890     19893     19893     19894     19893     19895     19893     19896
     19896     19897     19896     19898     19896     19899     19900     19901
     19900     19902     19900     19903     19900     19904     19904     19905
     19904     19906     19904     19907     19907     19908     19907     19909
     19907     19914     19914     19910     19910     19913     19910     19911
     19910     19912     19915     19916     19915     19917     19915     19918
     19915     19913     19918     19919     19918     19926     19918     19920
     19926     19927     19926     19928     19926     19929     19920     19921
     19921     19923     19921     19922     19923     19924     19923     19925
     19923     19935     19935     19936     19935     19937     19935     19938
     19938     19939     19938     19940     19938     19941     19941     19942
     19941     19943     19941     19944     19944     19945     19944     19946
     19944     19947     19947     19948     19947     19949     19947     19950
     19950     19951     19950     19952     19950     19953     19953     19954
     19953     19958     19953     19955     19958     19959     19958     19960
     19958     19955     19960     19961     19960     19962     19960     19963
     19963     19964     19963     19965     19963     19966     19966     19967
     19966     19968     19966     19969     19969     19970     19969     19971
     19969     19972     19972     19973     19972     19974     19972     19975
     19975     19976     19975     19977     19975     19978     19955     19956
     19955     19957     19929     19930     19930     19932     19930     19931
     19932     19933     19932     19934     19932     19979     19979     19980
     19979     19981     19979     19982     19982     19983     19982     19984
     19982     19985     19985     19986     19985     19987     19985     19988
     19988     19989     19988     19990     19988     19991     19991     19992
     19991     19993     19991     19994     19994     19995     19994     19996
     19994     19997     19997     19998     19997     19999     19997     20000
     20000     20001     20000     20002     20000     20003     20003     20004
     20003     20005     20003     20006     20006     20007     20006     20008
     20006     20009     20009     20010     20009     20011     20009     20012
     20012     20013     20012     20014     20012     20015     20015     20016
     20015     20017     20015     20018     20018     20019     20018     20020
     20018     20021     20022     20023     20022     20024     20022     20025
     20022     20026     20026     20027     20026     20028     20026     20029
     20029     20030     20029     20031     20029     20036     20036     20032
     20032     20035     20032     20033     20032     20034     20037     20038
     20037     20039     20037     20040     20037     20035     20040     20041
     20040     20048     20040     20042     20048     20049     20048     20050
     20048     20051     20042     20043     20043     20045     20043     20044
     20045     20046     20045     20047     20045     20057     20057     20058
     20057     20059     20057     20060     20060     20061     20060     20062
     20060     20063     20063     20064     20063     20065     20063     20066
     20066     20067     20066     20068     20066     20069     20069     20070
     20069     20071     20069     20072     20072     20073     20072     20074
     20072     20075     20075     20076     20075     20080     20075     20077
     20080     20081     20080     20082     20080     20077     20082     20083
     20082     20084     20082     20085     20085     20086     20085     20087
     20085     20088     20088     20089     20088     20090     20088     20091
     20091     20092     20091     20093     20091     20094     20094     20095
     20094     20096     20094     20097     20097     20098     20097     20099
     20097     20100     20077     20078     20077     20079     20051     20052
     20052     20054     20052     20053     20054     20055     20054     20056
     20054     20101     20101     20102     20101     20103     20101     20104
     20104     20105     20104     20106     20104     20107     20107     20108
     20107     20109     20107     20110     20110     20111     20110     20112
     20110     20113     20113     20114     20113     20115     20113     20116
     20116     20117     20116     20118     20116     20119     20119     20120
     20119     20121     20119     20122     20122     20123     20122     20124
     20122     20125     20125     20126     20125     20127     20125     20128
     20128     20129     20128     20130     20128     20131     20131     20132
     20131     20133     20131     20134     20134     20135     20134     20136
     20134     20137     20137     20138     20137     20139     20137     20140
     20140     20141     20140     20142     20140     20143     20144     20145
     20144     20146     20144     20147     20144     20148     20148     20149
     20148     20150     20148     20151     20151     20152     20151     20153
     20151     20158     20158     20154     20154     20157     20154     20155
     20154     20156     20159     20160     20159     20161     20159     20162
     20159     20157     20162     20163     20162     20170     20162     20164
     20170     20171     20170     20172     20170     20173     20164     20165
     20165     20167     20165     20166     20167     20168     20167     20169
     20167     20179     20179     20180     20179     20181     20179     20182
     20182     20183     20182     20184     20182     20185     20185     20186
     20185     20187     20185     20188     20188     20189     20188     20190
     20188     20191     20191     20192     20191     20193     20191     20194
     20194     20195     20194     20196     20194     20197     20197     20198
     20197     20199     20199     20200     20199     20201     20201     20202
     20201     20203     20201     20204     20204     20205     20204     20206
     20204     20207     20207     20208     20207     20209     20207     20210
     20210     20211     20210     20212     20210     20213     20213     20214
     20213     20215     20213     20216     20216     20217     20216     20218
     20216     20219     20173     20174     20174     20176     20174     20175
     20176     20177     20176     20178     20176     20220     20220     20221
     20220     20222     20220     20223     20223     20224     20223     20225
     20223     20226     20226     20227     20226     20228     20226     20229
     20229     20230     20229     20231     20229     20232     20232     20233
     20232     20234     20232     20235     20235     20236     20235     20237
     20235     20238     20238     20239     20238     20240     20240     20241
     20240     20242     20242     20243     20242     20244     20242     20245
     20245     20246     20245     20247     20245     20248     20248     20249
     20248     20250     20248     20251     20251     20252     20251     20253
     20251     20254     20254     20255     20254     20256     20254     20257
     20257     20258     20257     20259     20257     20260     20260     20261
     20260     20262     20260     20263     20263     20264     20263     20265
     20263     20266     20267     20268     20267     20269     20267     20270
     20267     20271     20271     20272     20271     20273     20271     20274
     20274     20275     20274     20276     20274     20281     20281     20277
     20277     20280     20277     20278     20277     20279     20282     20283
     20282     20284     20282     20285     20282     20280     20285     20286
     20285     20293     20285     20287     20293     20294     20293     20295
     20293     20296     20287     20288     20288     20290     20288     20289
     20290     20291     20290     20292     20290     20302     20302     20303
     20302     20304     20302     20305     20305     20306     20305     20307
     20305     20308     20308     20309     20308     20310     20308     20311
     20311     20312     20311     20313     20311     20314     20314     20315
     20314     20316     20314     20317     20317     20318     20317     20319
     20317     20320     20320     20321     20320     20325     20320     20322
     20325     20326     20325     20327     20325     20322     20327     20328
     20327     20329     20327     20330     20330     20331     20330     20332
     20330     20333     20333     20334     20333     20335     20333     20336
     20336     20337     20336     20338     20336     20339     20339     20340
     20339     20341     20339     20342     20342     20343     20342     20344
     20342     20345     20322     20323     20322     20324     20296     20297
     20297     20299     20297     20298     20299     20300     20299     20301
     20299     20346     20346     20347     20346     20348     20346     20349
     20349     20350     20349     20351     20349     20352     20352     20353
     20352     20354     20352     20355     20355     20356     20355     20357
     20355     20358     20358     20359     20358     20360     20358     20361
     20361     20362     20361     20363     20361     20364     20364     20365
     20364     20366     20364     20367     20367     20368     20367     20369
     20367     20370     20370     20371     20370     20372     20370     20373
     20373     20374     20373     20375     20373     20376     20376     20377
     20376     20378     20376     20379     20379     20380     20379     20381
     20379     20382     20382     20383     20382     20384     20382     20385
     20385     20386     20385     20387     20385     20388     20389     20390
     20389     20391     20389     20392     20389     20393     20393     20394
     20393     20395     20393     20396     20396     20397     20396     20398
     20396     20403     20403     20399     20399     20402     20399     20400
     20399     20401     20404     20405     20404     20406     20404     20407
     20404     20402     20407     20408     20407     20415     20407     20409
     20415     20416     20415     20417     20415     20418     20409     20410
     20410     20412     20410     20411     20412     20413     20412     20414
     20412     20424     20424     20425     20424     20426     20424     20427
     20427     20428     20427     20429     20427     20430     20430     20431
     20430     20432     20430     20433     20433     20434     20433     20435
     20433     20436     20436     20437     20436     20438     20436     20439
     20439     20440     20439     20441     20439     20442     20442     20443
     20442     20447     20442     20444     20447     20448     20447     20449
     20447     20444     20449     20450     20449     20451     20449     20452
     20452     20453     20452     20454     20452     20455     20455     20456
     20455     20457     20455     20458     20458     20459     20458     20460
     20458     20461     20461     20462     20461     20463     20461     20464
     20464     20465     20464     20466     20464     20467     20444     20445
     20444     20446     20418     20419     20419     20421     20419     20420
     20421     20422     20421     20423     20421     20468     20468     20469
     20468     20470     20468     20471     20471     20472     20471     20473
     20471     20474     20474     20475     20474     20476     20474     20477
     20477     20478     20477     20479     20477     20480     20480     20481
     20480     20482     20480     20483     20483     20484     20483     20485
     20483     20486     20486     20487     20486     20488     20486     20489
     20489     20490     20489     20491     20489     20492     20492     20493
     20492     20494     20492     20495     20495     20496     20495     20497
     20495     20498     20498     20499     20498     20500     20498     20501
     20501     20502     20501     20503     20501     20504     20504     20505
     20504     20506     20504     20507     20507     20508     20507     20509
     20507     20510     20515     20514     20514     20511     20511     20512
     20511     20513     20511     20516     20519     20518     20518     20516
     20516     20517     20516     20520     20520     20521     20520     20522
     20520     20527     20527     20523     20523     20526     20523     20524
     20523     20525     20528     20529     20528     20530     20528     20531
     20528     20526     20531     20532     20531     20539     20531     20533
     20539     20540     20539     20541     20539     20542     20533     20534
     20534     20536     20534     20535     20536     20537     20536     20538
     20536     20548     20548     20549     20548     20550     20548     20551
     20551     20552     20551     20553     20551     20554     20554     20555
     20554     20556     20554     20557     20557     20558     20557     20559
     20557     20560     20560     20561     20560     20562     20560     20563
     20563     20564     20563     20565     20563     20566     20566     20567
     20566     20571     20566     20568     20571     20572     20571     20573
     20571     20568     20573     20574     20573     20575     20573     20576
     20576     20577     20576     20578     20576     20579     20579     20580
     20579     20581     20579     20582     20582     20583     20582     20584
     20582     20585     20585     20586     20585     20587     20585     20588
     20588     20589     20588     20590     20588     20591     20568     20569
     20568     20570     20542     20543     20543     20545     20543     20544
     20545     20546     20545     20547     20545     20592     20592     20593
     20592     20594     20592     20595     20595     20596     20595     20597
     20595     20598     20598     20599     20598     20600     20598     20601
     20601     20602     20601     20603     20601     20604     20604     20605
     20604     20606     20604     20607     20607     20608     20607     20609
     20607     20610     20610     20611     20610     20612     20610     20613
     20613     20614     20613     20615     20613     20616     20616     20617
     20616     20618     20616     20619     20619     20620     20619     20621
     20619     20622     20622     20623     20622     20624     20622     20625
     20625     20626     20625     20627     20625     20628     20628     20629
     20628     20630     20628     20631     20631     20632     20631     20633
     20631     20634     20635     20636     20635     20637     20635     20638
     20635     20639     20639     20640     20639     20641     20639     20642
     20642     20643     20642     20644     20642     20649     20649     20645
     20645     20648     20645     20646     20645     20647     20650     20651
     20650     20652     20650     20653     20650     20648     20653     20654
     20653     20661     20653     20655     20661     20662     20661     20663
     20661     20664     20655     20656     20656     20658     20656     20657
     20658     20659     20658     20660     20658     20670     20670     20671
     20670     20672     20670     20673     20673     20674     20673     20675
     20673     20676     20676     20677     20676     20678     20676     20679
     20679     20680     20679     20681     20679     20682     20682     20683
     20682     20684     20682     20685     20685     20686     20685     20687
     20685     20688     20688     20689     20688     20693     20688     20690
     20693     20694     20693     20695     20693     20690     20695     20696
     20695     20697     20695     20698     20698     20699     20698     20700
     20698     20701     20701     20702     20701     20703     20701     20704
     20704     20705     20704     20706     20704     20707     20707     20708
     20707     20709     20707     20710     20710     20711     20710     20712
     20710     20713     20690     20691     20690     20692     20664     20665
     20665     20667     20665     20666     20667     20668     20667     20669
     20667     20714     20714     20715     20714     20716     20714     20717
     20717     20718     20717     20719     20717     20720     20720     20721
     20720     20722     20720     20723     20723     20724     20723     20725
     20723     20726     20726     20727     20726     20728     20726     20729
     20729     20730     20729     20731     20729     20732     20732     20733
     20732     20734     20732     20735     20735     20736     20735     20737
     20735     20738     20738     20739     20738     20740     20738     20741
     20741     20742     20741     20743     20741     20744     20744     20745
     20744     20746     20744     20747     20747     20748     20747     20749
     20747     20750     20750     20751     20750     20752     20750     20753
     20754     20755     20754     20756     20754     20757     20754     20758
     20758     20759     20758     20760     20758     20761     20761     20762
     20761     20763     20761     20768     20768     20764     20764     20767
     20764     20765     20764     20766     20769     20770     20769     20771
     20769     20772     20769     20767     20772     20773     20772     20780
     20772     20774     20780     20781     20780     20782     20780     20783
     20774     20775     20775     20777     20775     20776     20777     20778
     20777     20779     20777     20789     20789     20790     20789     20791
     20789     20792     20792     20793     20792     20794     20792     20795
     20795     20796     20795     20797     20795     20798     20798     20799
     20798     20800     20798     20801     20801     20802     20801     20803
     20801     20804     20804     20805     20804     20806     20804     20807
     20807     20808     20807     20812     20807     20809     20812     20813
     20812     20814     20812     20809     20814     20815     20814     20816
     20814     20817     20817     20818     20817     20819     20817     20820
     20820     20821     20820     20822     20820     20823     20823     20824
     20823     20825     20823     20826     20826     20827     20826     20828
     20826     20829     20829     20830     20829     20831     20829     20832
     20809     20810     20809     20811     20783     20784     20784     20786
     20784     20785     20786     20787     20786     20788     20786     20833
     20833     20834     20833     20835     20833     20836     20836     20837
     20836     20838     20836     20839     20839     20840     20839     20841
     20839     20842     20842     20843     20842     20844     20842     20845
     20845     20846     20845     20847     20845     20848     20848     20849
     20848     20850     20848     20851     20851     20852     20851     20853
     20851     20854     20854     20855     20854     20856     20854     20857
     20857     20858     20857     20859     20857     20860     20860     20861
     20860     20862     20860     20863     20863     20864     20863     20865
     20863     20866     20866     20867     20866     20868     20866     20869
     20869     20870     20869     20871     20869     20872     20872     20873
     20872     20874     20872     20875     20876     20877     20876     20878
     20876     20879     20876     20880     20880     20881     20880     20882
     20880     20883     20883     20884     20883     20885     20883     20890
     20890     20886     20886     20889     20886     20887     20886     20888
     20891     20892     20891     20893     20891     20894     20891     20889
     20894     20895     20894     20902     20894     20896     20902     20903
     20902     20904     20902     20905     20896     20897     20897     20899
     20897     20898     20899     20900     20899     20901     20899     20911
     20911     20912     20911     20913     20911     20914     20914     20915
     20914     20916     20914     20917     20917     20918     20917     20919
     20917     20920     20920     20921     20920     20922     20920     20923
     20923     20924     20923     20925     20923     20926     20926     20927
     20926     20928     20926     20929     20929     20930     20929     20934
     20929     20931     20934     20935     20934     20936     20934     20931
     20936     20937     20936     20938     20936     20939     20939     20940
     20939     20941     20939     20942     20942     20943     20942     20944
     20942     20945     20945     20946     20945     20947     20945     20948
     20948     20949     20948     20950     20948     20951     20951     20952
     20951     20953     20951     20954     20931     20932     20931     20933
     20905     20906     20906     20908     20906     20907     20908     20909
     20908     20910     20908     20955     20955     20956     20955     20957
     20955     20958     20958     20959     20958     20960     20958     20961
     20961     20962     20961     20963     20961     20964     20964     20965
     20964     20966     20964     20967     20967     20968     20967     20969
     20967     20970     20970     20971     20970     20972     20970     20973
     20973     20974     20973     20975     20973     20976     20976     20977
     20976     20978     20976     20979     20979     20980     20979     20981
     20979     20982     20982     20983     20982     20984     20982     20985
     20985     20986     20985     20987     20985     20988     20988     20989
     20988     20990     20988     20991     20991     20992     20991     20993
     20991     20994     20994     20995     20994     20996     20994     20997
     20998     20999     20998     21000     20998     21001     20998     21002
     21002     21003     21002     21004     21002     21005     21005     21006
     21005     21007     21005     21012     21012     21008     21008     21011
     21008     21009     21008     21010     21013     21014     21013     21015
     21013     21016     21013     21011     21016     21017     21016     21024
     21016     21018     21024     21025     21024     21026     21024     21027
     21018     21019     21019     21021     21019     21020     21021     21022
     21021     21023     21021     21033     21033     21034     21033     21035
     21033     21036     21036     21037     21036     21038     21036     21039
     21039     21040     21039     21041     21039     21042     21042     21043
     21042     21044     21042     21045     21045     21046     21045     21047
     21045     21048     21048     21049     21048     21050     21048     21051
     21051     21052     21051     21053     21053     21054     21053     21055
     21055     21056     21055     21057     21055     21058     21058     21059
     21058     21060     21058     21061     21061     21062     21061     21063
     21061     21064     21064     21065     21064     21066     21064     21067
     21067     21068     21067     21069     21067     21070     21070     21071
     21070     21072     21070     21073     21027     21028     21028     21030
     21028     21029     21030     21031     21030     21032     21030     21074
     21074     21075     21074     21076     21074     21077     21077     21078
     21077     21079     21077     21080     21080     21081     21080     21082
     21080     21083     21083     21084     21083     21085     21083     21086
     21086     21087     21086     21088     21086     21089     21089     21090
     21089     21091     21089     21092     21092     21093     21092     21094
     21094     21095     21094     21096     21096     21097     21096     21098
     21096     21099     21099     21100     21099     21101     21099     21102
     21102     21103     21102     21104     21102     21105     21105     21106
     21105     21107     21105     21108     21108     21109     21108     21110
     21108     21111     21111     21112     21111     21113     21111     21114
     21114     21115     21114     21116     21114     21117     21117     21118
     21117     21119     21117     21120     21125     21124     21124     21121
     21121     21122     21121     21123     21121     21126     21129     21128
     21128     21126     21126     21127     21126     21130     21130     21131
     21130     21132     21130     21137     21137     21133     21133     21136
     21133     21134     21133     21135     21138     21139     21138     21140
     21138     21141     21138     21136     21141     21142     21141     21149
     21141     21143     21149     21150     21149     21151     21149     21152
     21143     21144     21144     21146     21144     21145     21146     21147
     21146     21148     21146     21158     21158     21159     21158     21160
     21158     21161     21161     21162     21161     21163     21161     21164
     21164     21165     21164     21166     21164     21167     21167     21168
     21167     21169     21167     21170     21170     21171     21170     21172
     21170     21173     21173     21174     21173     21175     21173     21176
     21176     21177     21176     21178     21178     21179     21178     21180
     21180     21181     21180     21182     21180     21183     21183     21184
     21183     21185     21183     21186     21186     21187     21186     21188
     21186     21189     21189     21190     21189     21191     21189     21192
     21192     21193     21192     21194     21192     21195     21195     21196
     21195     21197     21195     21198     21152     21153     21153     21155
     21153     21154     21155     21156     21155     21157     21155     21199
     21199     21200     21199     21201     21199     21202     21202     21203
     21202     21204     21202     21205     21205     21206     21205     21207
     21205     21208     21208     21209     21208     21210     21208     21211
     21211     21212     21211     21213     21211     21214     21214     21215
     21214     21216     21214     21217     21217     21218     21217     21219
     21217     21220     21220     21221     21220     21222     21220     21223
     21223     21224     21223     21225     21223     21226     21226     21227
     21226     21228     21226     21229     21229     21230     21229     21231
     21229     21232     21232     21233     21232     21234     21232     21235
     21235     21236     21235     21237     21235     21238     21238     21239
     21238     21240     21238     21241     21242     21243     21242     21244
     21242     21245     21242     21246     21246     21247     21246     21248
     21246     21249     21249     21250     21249     21251     21249     21256
     21256     21252     21252     21255     21252     21253     21252     21254
     21257     21258     21257     21259     21257     21260     21257     21255
     21260     21261     21260     21268     21260     21262     21268     21269
     21268     21270     21268     21271     21262     21263     21263     21265
     21263     21264     21265     21266     21265     21267     21265     21277
     21277     21278     21277     21279     21277     21280     21280     21281
     21280     21282     21280     21283     21283     21284     21283     21285
     21283     21286     21286     21287     21286     21288     21286     21289
     21289     21290     21289     21291     21289     21292     21292     21293
     21292     21294     21292     21295     21295     21296     21295     21300
     21295     21297     21300     21301     21300     21302     21300     21297
     21302     21303     21302     21304     21302     21305     21305     21306
     21305     21307     21305     21308     21308     21309     21308     21310
     21308     21311     21311     21312     21311     21313     21311     21314
     21314     21315     21314     21316     21314     21317     21317     21318
     21317     21319     21317     21320     21297     21298     21297     21299
     21271     21272     21272     21274     21272     21273     21274     21275
     21274     21276     21274     21321     21321     21322     21321     21323
     21321     21324     21324     21325     21324     21326     21324     21327
     21327     21328     21327     21329     21327     21330     21330     21331
     21330     21332     21330     21333     21333     21334     21333     21335
     21333     21336     21336     21337     21336     21338     21336     21339
     21339     21340     21339     21341     21339     21342     21342     21343
     21342     21344     21342     21345     21345     21346     21345     21347
     21345     21348     21348     21349     21348     21350     21348     21351
     21351     21352     21351     21353     21351     21354     21354     21355
     21354     21356     21354     21357     21357     21358     21357     21359
     21357     21360     21360     21361     21360     21362     21360     21363
     21364     21365     21364     21366     21364     21367     21364     21368
     21368     21369     21368     21370     21368     21371     21371     21372
     21371     21373     21371     21378     21378     21374     21374     21377
     21374     21375     21374     21376     21379     21380     21379     21381
     21379     21382     21379     21377     21382     21383     21382     21390
     21382     21384     21390     21391     21390     21392     21390     21393
     21384     21385     21385     21387     21385     21386     21387     21388
     21387     21389     21387     21399     21399     21400     21399     21401
     21399     21402     21402     21403     21402     21404     21402     21405
     21405     21406     21405     21407     21405     21408     21408     21409
     21408     21410     21408     21411     21411     21412     21411     21413
     21411     21414     21414     21415     21414     21416     21414     21417
     21417     21418     21417     21422     21417     21419     21422     21423
     21422     21424     21422     21419     21424     21425     21424     21426
     21424     21427     21427     21428     21427     21429     21427     21430
     21430     21431     21430     21432     21430     21433     21433     21434
     21433     21435     21433     21436     21436     21437     21436     21438
     21436     21439     21439     21440     21439     21441     21439     21442
     21419     21420     21419     21421     21393     21394     21394     21396
     21394     21395     21396     21397     21396     21398     21396     21443
     21443     21444     21443     21445     21443     21446     21446     21447
     21446     21448     21446     21449     21449     21450     21449     21451
     21449     21452     21452     21453     21452     21454     21452     21455
     21455     21456     21455     21457     21455     21458     21458     21459
     21458     21460     21458     21461     21461     21462     21461     21463
     21461     21464     21464     21465     21464     21466     21464     21467
     21467     21468     21467     21469     21467     21470     21470     21471
     21470     21472     21470     21473     21473     21474     21473     21475
     21473     21476     21476     21477     21476     21478     21476     21479
     21479     21480     21479     21481     21479     21482     21482     21483
     21482     21484     21482     21485     21486     21487     21486     21488
     21486     21489     21486     21490     21490     21491     21490     21492
     21490     21493     21493     21494     21493     21495     21493     21500
     21500     21496     21496     21499     21496     21497     21496     21498
     21501     21502     21501     21503     21501     21504     21501     21499
     21504     21505     21504     21512     21504     21506     21512     21513
     21512     21514     21512     21515     21506     21507     21507     21509
     21507     21508     21509     21510     21509     21511     21509     21521
     21521     21522     21521     21523     21521     21524     21524     21525
     21524     21526     21524     21527     21527     21528     21527     21529
     21527     21530     21530     21531     21530     21532     21530     21533
     21533     21534     21533     21535     21533     21536     21536     21537
     21536     21538     21536     21539     21539     21540     21539     21544
     21539     21541     21544     21545     21544     21546     21544     21541
     21546     21547     21546     21548     21546     21549     21549     21550
     21549     21551     21549     21552     21552     21553     21552     21554
     21552     21555     21555     21556     21555     21557     21555     21558
     21558     21559     21558     21560     21558     21561     21561     21562
     21561     21563     21561     21564     21541     21542     21541     21543
     21515     21516     21516     21518     21516     21517     21518     21519
     21518     21520     21518     21565     21565     21566     21565     21567
     21565     21568     21568     21569     21568     21570     21568     21571
     21571     21572     21571     21573     21571     21574     21574     21575
     21574     21576     21574     21577     21577     21578     21577     21579
     21577     21580     21580     21581     21580     21582     21580     21583
     21583     21584     21583     21585     21583     21586     21586     21587
     21586     21588     21586     21589     21589     21590     21589     21591
     21589     21592     21592     21593     21592     21594     21592     21595
     21595     21596     21595     21597     21595     21598     21598     21599
     21598     21600     21598     21601     21601     21602     21601     21603
     21601     21604     21604     21605     21604     21606     21604     21607
     21608     21609     21608     21610     21608     21611     21608     21612
     21612     21613     21612     21614     21612     21615     21615     21616
     21615     21617     21615     21622     21622     21618     21618     21621
     21618     21619     21618     21620     21623     21624     21623     21625
     21623     21626     21623     21621     21626     21627     21626     21634
     21626     21628     21634     21635     21634     21636     21634     21637
     21628     21629     21629     21631     21629     21630     21631     21632
     21631     21633     21631     21643     21643     21644     21643     21645
     21643     21646     21646     21647     21646     21648     21646     21649
     21649     21650     21649     21651     21649     21652     21652     21653
     21652     21654     21652     21655     21655     21656     21655     21657
     21655     21658     21658     21659     21658     21660     21658     21661
     21661     21662     21661     21666     21661     21663     21666     21667
     21666     21668     21666     21663     21668     21669     21668     21670
     21668     21671     21671     21672     21671     21673     21671     21674
     21674     21675     21674     21676     21674     21677     21677     21678
     21677     21679     21677     21680     21680     21681     21680     21682
     21680     21683     21683     21684     21683     21685     21683     21686
     21663     21664     21663     21665     21637     21638     21638     21640
     21638     21639     21640     21641     21640     21642     21640     21687
     21687     21688     21687     21689     21687     21690     21690     21691
     21690     21692     21690     21693     21693     21694     21693     21695
     21693     21696     21696     21697     21696     21698     21696     21699
     21699     21700     21699     21701     21699     21702     21702     21703
     21702     21704     21702     21705     21705     21706     21705     21707
     21705     21708     21708     21709     21708     21710     21708     21711
     21711     21712     21711     21713     21711     21714     21714     21715
     21714     21716     21714     21717     21717     21718     21717     21719
     21717     21720     21720     21721     21720     21722     21720     21723
     21723     21724     21723     21725     21723     21726     21726     21727
     21726     21728     21726     21729     21730     21731     21730     21732
     21730     21733     21730     21734     21734     21735     21734     21736
     21734     21737     21737     21738     21737     21739     21737     21744
     21744     21740     21740     21743     21740     21741     21740     21742
     21745     21746     21745     21747     21745     21748     21745     21743
     21748     21749     21748     21756     21748     21750     21756     21757
     21756     21758     21756     21759     21750     21751     21751     21753
     21751     21752     21753     21754     21753     21755     21753     21765
     21765     21766     21765     21767     21765     21768     21768     21769
     21768     21770     21768     21771     21771     21772     21771     21773
     21771     21774     21774     21775     21774     21776     21774     21777
     21777     21778     21777     21779     21777     21780     21780     21781
     21780     21782     21780     21783     21783     21784     21783     21788
     21783     21785     21788     21789     21788     21790     21788     21785
     21790     21791     21790     21792     21790     21793     21793     21794
     21793     21795     21793     21796     21796     21797     21796     21798
     21796     21799     21799     21800     21799     21801     21799     21802
     21802     21803     21802     21804     21802     21805     21805     21806
     21805     21807     21805     21808     21785     21786     21785     21787
     21759     21760     21760     21762     21760     21761     21762     21763
     21762     21764     21762     21809     21809     21810     21809     21811
     21809     21812     21812     21813     21812     21814     21812     21815
     21815     21816     21815     21817     21815     21818     21818     21819
     21818     21820     21818     21821     21821     21822     21821     21823
     21821     21824     21824     21825     21824     21826     21824     21827
     21827     21828     21827     21829     21827     21830     21830     21831
     21830     21832     21830     21833     21833     21834     21833     21835
     21833     21836     21836     21837     21836     21838     21836     21839
     21839     21840     21839     21841     21839     21842     21842     21843
     21842     21844     21842     21845     21845     21846     21845     21847
     21845     21848     21848     21849     21848     21850     21848     21851
     21852     21853     21852     21854     21852     21855     21852     21856
     21856     21857     21856     21858     21856     21859     21859     21860
     21859     21861     21859     21866     21866     21862     21862     21865
     21862     21863     21862     21864     21867     21868     21867     21869
     21867     21870     21867     21865     21870     21871     21870     21878
     21870     21872     21878     21879     21878     21880     21878     21881
     21872     21873     21873     21875     21873     21874     21875     21876
     21875     21877     21875     21887     21887     21888     21887     21889
     21887     21890     21890     21891     21890     21892     21890     21893
     21893     21894     21893     21895     21893     21896     21896     21897
     21896     21898     21896     21899     21899     21900     21899     21901
     21899     21902     21902     21903     21902     21904     21902     21905
     21905     21906     21905     21907     21907     21908     21907     21909
     21909     21910     21909     21911     21909     21912     21912     21913
     21912     21914     21912     21915     21915     21916     21915     21917
     21915     21918     21918     21919     21918     21920     21918     21921
     21921     21922     21921     21923     21921     21924     21924     21925
     21924     21926     21924     21927     21927     21928     21927     21929
     21927     21930     21930     21931     21930     21932     21930     21933
     21881     21882     21882     21884     21882     21883     21884     21885
     21884     21886     21884     21934     21934     21935     21934     21936
     21934     21937     21937     21938     21937     21939     21937     21940
     21940     21941     21940     21942     21940     21943     21943     21944
     21943     21945     21943     21946     21946     21947     21946     21948
     21946     21949     21949     21950     21949     21951     21949     21952
     21952     21953     21952     21954     21952     21955     21955     21956
     21955     21957     21955     21958     21958     21959     21958     21960
     21958     21961     21961     21962     21961     21963     21961     21964
     21964     21965     21964     21966     21964     21967     21967     21968
     21967     21969     21967     21970     21970     21971     21970     21972
     21970     21973     21973     21974     21973     21975     21973     21976
     21977     21978     21977     21979     21977     21980     21977     21981
     21981     21982     21981     21983     21981     21984     21984     21985
     21984     21986     21984     21991     21991     21987     21987     21990
     21987     21988     21987     21989     21992     21993     21992     21994
     21992     21995     21992     21990     21995     21996     21995     22003
     21995     21997     22003     22004     22003     22005     22003     22006
     21997     21998     21998     22000     21998     21999     22000     22001
     22000     22002     22000     22012     22012     22013     22012     22014
     22012     22015     22015     22016     22015     22017     22015     22018
     22018     22019     22018     22020     22018     22021     22021     22022
     22021     22023     22021     22024     22024     22025     22024     22026
     22024     22027     22027     22028     22027     22029     22027     22030
     22030     22031     22030     22032     22032     22033     22032     22034
     22034     22035     22034     22036     22034     22037     22037     22038
     22037     22039     22037     22040     22040     22041     22040     22042
     22040     22043     22043     22044     22043     22045     22043     22046
     22046     22047     22046     22048     22046     22049     22049     22050
     22049     22051     22049     22052     22006     22007     22007     22009
     22007     22008     22009     22010     22009     22011     22009     22053
     22053     22054     22053     22055     22053     22056     22056     22057
     22056     22058     22056     22059     22059     22060     22059     22061
     22059     22062     22062     22063     22062     22064     22062     22065
     22065     22066     22065     22067     22065     22068     22068     22069
     22068     22070     22068     22071     22071     22072     22071     22073
     22073     22074     22073     22075     22075     22076     22075     22077
     22075     22078     22078     22079     22078     22080     22078     22081
     22081     22082     22081     22083     22081     22084     22084     22085
     22084     22086     22084     22087     22087     22088     22087     22089
     22087     22090     22090     22091     22090     22092     22090     22093
     22093     22094     22093     22095     22093     22096     22096     22097
     22096     22098     22096     22099     22100     22101     22100     22102
     22100     22103     22100     22104     22104     22105     22104     22106
     22104     22107     22107     22108     22107     22109     22107     22114
     22114     22110     22110     22113     22110     22111     22110     22112
     22115     22116     22115     22117     22115     22118     22115     22113
     22118     22119     22118     22126     22118     22120     22126     22127
     22126     22128     22126     22129     22120     22121     22121     22123
     22121     22122     22123     22124     22123     22125     22123     22135
     22135     22136     22135     22137     22135     22138     22138     22139
     22138     22140     22138     22141     22141     22142     22141     22143
     22141     22144     22144     22145     22144     22146     22144     22147
     22147     22148     22147     22149     22147     22150     22150     22151
     22150     22152     22150     22153     22153     22154     22153     22158
     22153     22155     22158     22159     22158     22160     22158     22155
     22160     22161     22160     22162     22160     22163     22163     22164
     22163     22165     22163     22166     22166     22167     22166     22168
     22166     22169     22169     22170     22169     22171     22169     22172
     22172     22173     22172     22174     22172     22175     22175     22176
     22175     22177     22175     22178     22155     22156     22155     22157
     22129     22130     22130     22132     22130     22131     22132     22133
     22132     22134     22132     22179     22179     22180     22179     22181
     22179     22182     22182     22183     22182     22184     22182     22185
     22185     22186     22185     22187     22185     22188     22188     22189
     22188     22190     22188     22191     22191     22192     22191     22193
     22191     22194     22194     22195     22194     22196     22194     22197
     22197     22198     22197     22199     22197     22200     22200     22201
     22200     22202     22200     22203     22203     22204     22203     22205
     22203     22206     22206     22207     22206     22208     22206     22209
     22209     22210     22209     22211     22209     22212     22212     22213
     22212     22214     22212     22215     22215     22216     22215     22217
     22215     22218     22219     22220     22219     22221     22219     22222
     22219     22223     22223     22224     22223     22225     22223     22226
     22226     22227     22226     22228     22226     22233     22233     22229
     22229     22232     22229     22230     22229     22231     22234     22235
     22234     22236     22234     22237     22234     22232     22237     22238
     22237     22245     22237     22239     22245     22246     22245     22247
     22245     22248     22239     22240     22240     22242     22240     22241
     22242     22243     22242     22244     22242     22254     22254     22255
     22254     22256     22254     22257     22257     22258     22257     22259
     22257     22260     22260     22261     22260     22262     22260     22263
     22263     22264     22263     22265     22263     22266     22266     22267
     22266     22268     22266     22269     22269     22270     22269     22271
     22269     22272     22272     22273     22272     22277     22272     22274
     22277     22278     22277     22279     22277     22274     22279     22280
     22279     22281     22279     22282     22282     22283     22282     22284
     22282     22285     22285     22286     22285     22287     22285     22288
     22288     22289     22288     22290     22288     22291     22291     22292
     22291     22293     22291     22294     22294     22295     22294     22296
     22294     22297     22274     22275     22274     22276     22248     22249
     22249     22251     22249     22250     22251     22252     22251     22253
     22251     22298     22298     22299     22298     22300     22298     22301
     22301     22302     22301     22303     22301     22304     22304     22305
     22304     22306     22304     22307     22307     22308     22307     22309
     22307     22310     22310     22311     22310     22312     22310     22313
     22313     22314     22313     22315     22313     22316     22316     22317
     22316     22318     22316     22319     22319     22320     22319     22321
     22319     22322     22322     22323     22322     22324     22322     22325
     22325     22326     22325     22327     22325     22328     22328     22329
     22328     22330     22328     22331     22331     22332     22331     22333
     22331     22334     22334     22335     22334     22336     22334     22337
     22338     22339     22338     22340     22338     22341     22338     22342
     22342     22343     22342     22344     22342     22345     22345     22346
     22345     22347     22345     22352     22352     22348     22348     22351
     22348     22349     22348     22350     22353     22354     22353     22355
     22353     22356     22353     22351     22356     22357     22356     22364
     22356     22358     22364     22365     22364     22366     22364     22367
     22358     22359     22359     22361     22359     22360     22361     22362
     22361     22363     22361     22373     22373     22374     22373     22375
     22373     22376     22376     22377     22376     22378     22376     22379
     22379     22380     22379     22381     22379     22382     22382     22383
     22382     22384     22382     22385     22385     22386     22385     22387
     22385     22388     22388     22389     22388     22390     22388     22391
     22391     22392     22391     22396     22391     22393     22396     22397
     22396     22398     22396     22393     22398     22399     22398     22400
     22398     22401     22401     22402     22401     22403     22401     22404
     22404     22405     22404     22406     22404     22407     22407     22408
     22407     22409     22407     22410     22410     22411     22410     22412
     22410     22413     22413     22414     22413     22415     22413     22416
     22393     22394     22393     22395     22367     22368     22368     22370
     22368     22369     22370     22371     22370     22372     22370     22417
     22417     22418     22417     22419     22417     22420     22420     22421
     22420     22422     22420     22423     22423     22424     22423     22425
     22423     22426     22426     22427     22426     22428     22426     22429
     22429     22430     22429     22431     22429     22432     22432     22433
     22432     22434     22432     22435     22435     22436     22435     22437
     22435     22438     22438     22439     22438     22440     22438     22441
     22441     22442     22441     22443     22441     22444     22444     22445
     22444     22446     22444     22447     22447     22448     22447     22449
     22447     22450     22450     22451     22450     22452     22450     22453
     22453     22454     22453     22455     22453     22456     22456     22457
     22456     22458     22456     22459     22464     22463     22463     22460
     22460     22461     22460     22462     22460     22465     22468     22467
     22467     22465     22465     22466     22465     22469     22469     22470
     22469     22471     22469     22476     22476     22472     22472     22475
     22472     22473     22472     22474     22477     22478     22477     22479
     22477     22480     22477     22475     22480     22481     22480     22488
     22480     22482     22488     22489     22488     22490     22488     22491
     22482     22483     22483     22485     22483     22484     22485     22486
     22485     22487     22485     22497     22497     22498     22497     22499
     22497     22500     22500     22501     22500     22502     22500     22503
     22503     22504     22503     22505     22503     22506     22506     22507
     22506     22508     22506     22509     22509     22510     22509     22511
     22509     22512     22512     22513     22512     22514     22512     22515
     22515     22516     22515     22520     22515     22517     22520     22521
     22520     22522     22520     22517     22522     22523     22522     22524
     22522     22525     22525     22526     22525     22527     22525     22528
     22528     22529     22528     22530     22528     22531     22531     22532
     22531     22533     22531     22534     22534     22535     22534     22536
     22534     22537     22537     22538     22537     22539     22537     22540
     22517     22518     22517     22519     22491     22492     22492     22494
     22492     22493     22494     22495     22494     22496     22494     22541
     22541     22542     22541     22543     22541     22544     22544     22545
     22544     22546     22544     22547     22547     22548     22547     22549
     22547     22550     22550     22551     22550     22552     22550     22553
     22553     22554     22553     22555     22553     22556     22556     22557
     22556     22558     22556     22559     22559     22560     22559     22561
     22559     22562     22562     22563     22562     22564     22562     22565
     22565     22566     22565     22567     22565     22568     22568     22569
     22568     22570     22568     22571     22571     22572     22571     22573
     22571     22574     22574     22575     22574     22576     22574     22577
     22577     22578     22577     22579     22577     22580     22580     22581
     22580     22582     22580     22583     22588     22587     22587     22584
     22584     22585     22584     22586     22584     22589     22592     22591
     22591     22589     22589     22590     22589     22593     22593     22594
     22593     22595     22593     22600     22600     22596     22596     22599
     22596     22597     22596     22598     22601     22602     22601     22603
     22601     22604     22601     22599     22604     22605     22604     22612
     22604     22606     22612     22613     22612     22614     22612     22615
     22606     22607     22607     22609     22607     22608     22609     22610
     22609     22611     22609     22621     22621     22622     22621     22623
     22621     22624     22624     22625     22624     22626     22624     22627
     22627     22628     22627     22629     22627     22630     22630     22631
     22630     22632     22630     22633     22633     22634     22633     22635
     22633     22636     22636     22637     22636     22638     22636     22639
     22639     22640     22639     22644     22639     22641     22644     22645
     22644     22646     22644     22641     22646     22647     22646     22648
     22646     22649     22649     22650     22649     22651     22649     22652
     22652     22653     22652     22654     22652     22655     22655     22656
     22655     22657     22655     22658     22658     22659     22658     22660
     22658     22661     22661     22662     22661     22663     22661     22664
     22641     22642     22641     22643     22615     22616     22616     22618
     22616     22617     22618     22619     22618     22620     22618     22665
     22665     22666     22665     22667     22665     22668     22668     22669
     22668     22670     22668     22671     22671     22672     22671     22673
     22671     22674     22674     22675     22674     22676     22674     22677
     22677     22678     22677     22679     22677     22680     22680     22681
     22680     22682     22680     22683     22683     22684     22683     22685
     22683     22686     22686     22687     22686     22688     22686     22689
     22689     22690     22689     22691     22689     22692     22692     22693
     22692     22694     22692     22695     22695     22696     22695     22697
     22695     22698     22698     22699     22698     22700     22698     22701
     22701     22702     22701     22703     22701     22704     22704     22705
     22704     22706     22704     22707     22708     22709     22708     22710
     22708     22711     22708     22712     22712     22713     22712     22714
     22712     22715     22715     22716     22715     22717     22715     22722
     22722     22718     22718     22721     22718     22719     22718     22720
     22723     22724     22723     22725     22723     22726     22723     22721
     22726     22727     22726     22734     22726     22728     22734     22735
     22734     22736     22734     22737     22728     22729     22729     22731
     22729     22730     22731     22732     22731     22733     22731     22743
     22743     22744     22743     22745     22743     22746     22746     22747
     22746     22748     22746     22749     22749     22750     22749     22751
     22749     22752     22752     22753     22752     22754     22752     22755
     22755     22756     22755     22757     22755     22758     22758     22759
     22758     22760     22758     22761     22761     22762     22761     22763
     22763     22764     22763     22765     22765     22766     22765     22767
     22765     22768     22768     22769     22768     22770     22768     22771
     22771     22772     22771     22773     22771     22774     22774     22775
     22774     22776     22774     22777     22777     22778     22777     22779
     22777     22780     22780     22781     22780     22782     22780     22783
     22737     22738     22738     22740     22738     22739     22740     22741
     22740     22742     22740     22784     22784     22785     22784     22786
     22784     22787     22787     22788     22787     22789     22787     22790
     22790     22791     22790     22792     22790     22793     22793     22794
     22793     22795     22793     22796     22796     22797     22796     22798
     22796     22799     22799     22800     22799     22801     22799     22802
     22802     22803     22802     22804     22804     22805     22804     22806
     22806     22807     22806     22808     22806     22809     22809     22810
     22809     22811     22809     22812     22812     22813     22812     22814
     22812     22815     22815     22816     22815     22817     22815     22818
     22818     22819     22818     22820     22818     22821     22821     22822
     22821     22823     22821     22824     22824     22825     22824     22826
     22824     22827     22827     22828     22827     22829     22827     22830
     22831     22832     22831     22833     22831     22834     22831     22835
     22835     22836     22835     22837     22835     22838     22838     22839
     22838     22840     22838     22845     22845     22841     22841     22844
     22841     22842     22841     22843     22846     22847     22846     22848
     22846     22849     22846     22844     22849     22850     22849     22857
     22849     22851     22857     22858     22857     22859     22857     22860
     22851     22852     22852     22854     22852     22853     22854     22855
     22854     22856     22854     22866     22866     22867     22866     22868
     22866     22869     22869     22870     22869     22871     22869     22872
     22872     22873     22872     22874     22872     22875     22875     22876
     22875     22877     22875     22878     22878     22879     22878     22880
     22878     22881     22881     22882     22881     22883     22881     22884
     22884     22885     22884     22886     22886     22887     22886     22888
     22888     22889     22888     22890     22888     22891     22891     22892
     22891     22893     22891     22894     22894     22895     22894     22896
     22894     22897     22897     22898     22897     22899     22897     22900
     22900     22901     22900     22902     22900     22903     22903     22904
     22903     22905     22903     22906     22906     22907     22906     22908
     22906     22909     22909     22910     22909     22911     22909     22912
     22860     22861     22861     22863     22861     22862     22863     22864
     22863     22865     22863     22913     22913     22914     22913     22915
     22913     22916     22916     22917     22916     22918     22916     22919
     22919     22920     22919     22921     22919     22922     22922     22923
     22922     22924     22922     22925     22925     22926     22925     22927
     22925     22928     22928     22929     22928     22930     22928     22931
     22931     22932     22931     22933     22931     22934     22934     22935
     22934     22936     22934     22937     22937     22938     22937     22939
     22937     22940     22940     22941     22940     22942     22940     22943
     22943     22944     22943     22945     22943     22946     22946     22947
     22946     22948     22946     22949     22949     22950     22949     22951
     22949     22952     22952     22953     22952     22954     22952     22955
     22960     22959     22959     22956     22956     22957     22956     22958
     22956     22961     22964     22963     22963     22961     22961     22962
     22961     22965     22965     22966     22965     22967     22965     22972
     22972     22968     22968     22971     22968     22969     22968     22970
     22973     22974     22973     22975     22973     22976     22973     22971
     22976     22977     22976     22984     22976     22978     22984     22985
     22984     22986     22984     22987     22978     22979     22979     22981
     22979     22980     22981     22982     22981     22983     22981     22993
     22993     22994     22993     22995     22993     22996     22996     22997
     22996     22998     22996     22999     22999     23000     22999     23001
     22999     23002     23002     23003     23002     23004     23002     23005
     23005     23006     23005     23007     23005     23008     23008     23009
     23008     23010     23008     23011     23011     23012     23011     23016
     23011     23013     23016     23017     23016     23018     23016     23013
     23018     23019     23018     23020     23018     23021     23021     23022
     23021     23023     23021     23024     23024     23025     23024     23026
     23024     23027     23027     23028     23027     23029     23027     23030
     23030     23031     23030     23032     23030     23033     23033     23034
     23033     23035     23033     23036     23013     23014     23013     23015
     22987     22988     22988     22990     22988     22989     22990     22991
     22990     22992     22990     23037     23037     23038     23037     23039
     23037     23040     23040     23041     23040     23042     23040     23043
     23043     23044     23043     23045     23043     23046     23046     23047
     23046     23048     23046     23049     23049     23050     23049     23051
     23049     23052     23052     23053     23052     23054     23052     23055
     23055     23056     23055     23057     23055     23058     23058     23059
     23058     23060     23058     23061     23061     23062     23061     23063
     23061     23064     23064     23065     23064     23066     23064     23067
     23067     23068     23067     23069     23067     23070     23070     23071
     23070     23072     23070     23073     23073     23074     23073     23075
     23073     23076     23076     23077     23076     23078     23076     23079
     23080     23081     23080     23082     23080     23083     23080     23084
     23084     23085     23084     23086     23084     23087     23087     23088
     23087     23089     23087     23094     23094     23090     23090     23093
     23090     23091     23090     23092     23095     23096     23095     23097
     23095     23098     23095     23093     23098     23099     23098     23106
     23098     23100     23106     23107     23106     23108     23106     23109
     23100     23101     23101     23103     23101     23102     23103     23104
     23103     23105     23103     23115     23115     23116     23115     23117
     23115     23118     23118     23119     23118     23120     23118     23121
     23121     23122     23121     23123     23121     23124     23124     23125
     23124     23126     23124     23127     23127     23128     23127     23129
     23127     23130     23130     23131     23130     23132     23130     23133
     23133     23134     23133     23138     23133     23135     23138     23139
     23138     23140     23138     23135     23140     23141     23140     23142
     23140     23143     23143     23144     23143     23145     23143     23146
     23146     23147     23146     23148     23146     23149     23149     23150
     23149     23151     23149     23152     23152     23153     23152     23154
     23152     23155     23155     23156     23155     23157     23155     23158
     23135     23136     23135     23137     23109     23110     23110     23112
     23110     23111     23112     23113     23112     23114     23112     23159
     23159     23160     23159     23161     23159     23162     23162     23163
     23162     23164     23162     23165     23165     23166     23165     23167
     23165     23168     23168     23169     23168     23170     23168     23171
     23171     23172     23171     23173     23171     23174     23174     23175
     23174     23176     23174     23177     23177     23178     23177     23179
     23177     23180     23180     23181     23180     23182     23180     23183
     23183     23184     23183     23185     23183     23186     23186     23187
     23186     23188     23186     23189     23189     23190     23189     23191
     23189     23192     23192     23193     23192     23194     23192     23195
     23195     23196     23195     23197     23195     23198     23198     23199
     23198     23200     23198     23201     23206     23205     23205     23202
     23202     23203     23202     23204     23202     23207     23210     23209
     23209     23207     23207     23208     23207     23211     23211     23212
     23211     23213     23211     23218     23218     23214     23214     23217
     23214     23215     23214     23216     23219     23220     23219     23221
     23219     23222     23219     23217     23222     23223     23222     23230
     23222     23224     23230     23231     23230     23232     23230     23233
     23224     23225     23225     23227     23225     23226     23227     23228
     23227     23229     23227     23239     23239     23240     23239     23241
     23239     23242     23242     23243     23242     23244     23242     23245
     23245     23246     23245     23247     23245     23248     23248     23249
     23248     23250     23248     23251     23251     23252     23251     23253
     23251     23254     23254     23255     23254     23256     23254     23257
     23257     23258     23257     23262     23257     23259     23262     23263
     23262     23264     23262     23259     23264     23265     23264     23266
     23264     23267     23267     23268     23267     23269     23267     23270
     23270     23271     23270     23272     23270     23273     23273     23274
     23273     23275     23273     23276     23276     23277     23276     23278
     23276     23279     23279     23280     23279     23281     23279     23282
     23259     23260     23259     23261     23233     23234     23234     23236
     23234     23235     23236     23237     23236     23238     23236     23283
     23283     23284     23283     23285     23283     23286     23286     23287
     23286     23288     23286     23289     23289     23290     23289     23291
     23289     23292     23292     23293     23292     23294     23292     23295
     23295     23296     23295     23297     23295     23298     23298     23299
     23298     23300     23298     23301     23301     23302     23301     23303
     23301     23304     23304     23305     23304     23306     23304     23307
     23307     23308     23307     23309     23307     23310     23310     23311
     23310     23312     23310     23313     23313     23314     23313     23315
     23313     23316     23316     23317     23316     23318     23316     23319
     23319     23320     23319     23321     23319     23322     23322     23323
     23322     23324     23322     23325     23330     23329     23329     23326
     23326     23327     23326     23328     23326     23331     23334     23333
     23333     23331     23331     23332     23331     23335     23335     23336
     23335     23337     23335     23342     23342     23338     23338     23341
     23338     23339     23338     23340     23343     23344     23343     23345
     23343     23346     23343     23341     23346     23347     23346     23354
     23346     23348     23354     23355     23354     23356     23354     23357
     23348     23349     23349     23351     23349     23350     23351     23352
     23351     23353     23351     23363     23363     23364     23363     23365
     23363     23366     23366     23367     23366     23368     23366     23369
     23369     23370     23369     23371     23369     23372     23372     23373
     23372     23374     23372     23375     23375     23376     23375     23377
     23375     23378     23378     23379     23378     23380     23378     23381
     23381     23382     23381     23383     23383     23384     23383     23385
     23385     23386     23385     23387     23385     23388     23388     23389
     23388     23390     23388     23391     23391     23392     23391     23393
     23391     23394     23394     23395     23394     23396     23394     23397
     23397     23398     23397     23399     23397     23400     23400     23401
     23400     23402     23400     23403     23357     23358     23358     23360
     23358     23359     23360     23361     23360     23362     23360     23404
     23404     23405     23404     23406     23404     23407     23407     23408
     23407     23409     23407     23410     23410     23411     23410     23412
     23410     23413     23413     23414     23413     23415     23413     23416
     23416     23417     23416     23418     23416     23419     23419     23420
     23419     23421     23419     23422     23422     23423     23422     23424
     23422     23425     23425     23426     23425     23427     23425     23428
     23428     23429     23428     23430     23428     23431     23431     23432
     23431     23433     23431     23434     23434     23435     23434     23436
     23434     23437     23437     23438     23437     23439     23437     23440
     23440     23441     23440     23442     23440     23443     23443     23444
     23443     23445     23443     23446     23447     23448     23447     23449
     23447     23450     23447     23451     23451     23452     23451     23453
     23451     23454     23454     23455     23454     23456     23454     23461
     23461     23457     23457     23460     23457     23458     23457     23459
     23462     23463     23462     23464     23462     23465     23462     23460
     23465     23466     23465     23473     23465     23467     23473     23474
     23473     23475     23473     23476     23467     23468     23468     23470
     23468     23469     23470     23471     23470     23472     23470     23482
     23482     23483     23482     23484     23482     23485     23485     23486
     23485     23487     23485     23488     23488     23489     23488     23490
     23488     23491     23491     23492     23491     23493     23491     23494
     23494     23495     23494     23496     23494     23497     23497     23498
     23497     23499     23497     23500     23500     23501     23500     23502
     23502     23503     23502     23504     23504     23505     23504     23506
     23504     23507     23507     23508     23507     23509     23507     23510
     23510     23511     23510     23512     23510     23513     23513     23514
     23513     23515     23513     23516     23516     23517     23516     23518
     23516     23519     23519     23520     23519     23521     23519     23522
     23522     23523     23522     23524     23522     23525     23525     23526
     23525     23527     23525     23528     23476     23477     23477     23479
     23477     23478     23479     23480     23479     23481     23479     23529
     23529     23530     23529     23531     23529     23532     23532     23533
     23532     23534     23532     23535     23535     23536     23535     23537
     23535     23538     23538     23539     23538     23540     23538     23541
     23541     23542     23541     23543     23541     23544     23544     23545
     23544     23546     23544     23547     23547     23548     23547     23549
     23547     23550     23550     23551     23550     23552     23550     23553
     23553     23554     23553     23555     23553     23556     23556     23557
     23556     23558     23556     23559     23559     23560     23559     23561
     23559     23562     23562     23563     23562     23564     23562     23565
     23565     23566     23565     23567     23565     23568     23568     23569
     23568     23570     23568     23571     23572     23573     23572     23574
     23572     23575     23572     23576     23576     23577     23576     23578
     23576     23579     23579     23580     23579     23581     23579     23586
     23586     23582     23582     23585     23582     23583     23582     23584
     23587     23588     23587     23589     23587     23590     23587     23585
     23590     23591     23590     23598     23590     23592     23598     23599
     23598     23600     23598     23601     23592     23593     23593     23595
     23593     23594     23595     23596     23595     23597     23595     23607
     23607     23608     23607     23609     23607     23610     23610     23611
     23610     23612     23610     23613     23613     23614     23613     23615
     23613     23616     23616     23617     23616     23618     23616     23619
     23619     23620     23619     23621     23619     23622     23622     23623
     23622     23624     23622     23625     23625     23626     23625     23630
     23625     23627     23630     23631     23630     23632     23630     23627
     23632     23633     23632     23634     23632     23635     23635     23636
     23635     23637     23635     23638     23638     23639     23638     23640
     23638     23641     23641     23642     23641     23643     23641     23644
     23644     23645     23644     23646     23644     23647     23647     23648
     23647     23649     23647     23650     23627     23628     23627     23629
     23601     23602     23602     23604     23602     23603     23604     23605
     23604     23606     23604     23651     23651     23652     23651     23653
     23651     23654     23654     23655     23654     23656     23654     23657
     23657     23658     23657     23659     23657     23660     23660     23661
     23660     23662     23660     23663     23663     23664     23663     23665
     23663     23666     23666     23667     23666     23668     23666     23669
     23669     23670     23669     23671     23669     23672     23672     23673
     23672     23674     23672     23675     23675     23676     23675     23677
     23675     23678     23678     23679     23678     23680     23678     23681
     23681     23682     23681     23683     23681     23684     23684     23685
     23684     23686     23684     23687     23687     23688     23687     23689
     23687     23690     23690     23691     23690     23692     23690     23693
     23698     23697     23697     23694     23694     23695     23694     23696
     23694     23699     23702     23701     23701     23699     23699     23700
     23699     23703     23703     23704     23703     23705     23703     23710
     23710     23706     23706     23709     23706     23707     23706     23708
     23711     23712     23711     23713     23711     23714     23711     23709
     23714     23715     23714     23722     23714     23716     23722     23723
     23722     23724     23722     23725     23716     23717     23717     23719
     23717     23718     23719     23720     23719     23721     23719     23731
     23731     23732     23731     23733     23731     23734     23734     23735
     23734     23736     23734     23737     23737     23738     23737     23739
     23737     23740     23740     23741     23740     23742     23740     23743
     23743     23744     23743     23745     23743     23746     23746     23747
     23746     23748     23746     23749     23749     23750     23749     23754
     23749     23751     23754     23755     23754     23756     23754     23751
     23756     23757     23756     23758     23756     23759     23759     23760
     23759     23761     23759     23762     23762     23763     23762     23764
     23762     23765     23765     23766     23765     23767     23765     23768
     23768     23769     23768     23770     23768     23771     23771     23772
     23771     23773     23771     23774     23751     23752     23751     23753
     23725     23726     23726     23728     23726     23727     23728     23729
     23728     23730     23728     23775     23775     23776     23775     23777
     23775     23778     23778     23779     23778     23780     23778     23781
     23781     23782     23781     23783     23781     23784     23784     23785
     23784     23786     23784     23787     23787     23788     23787     23789
     23787     23790     23790     23791     23790     23792     23790     23793
     23793     23794     23793     23795     23793     23796     23796     23797
     23796     23798     23796     23799     23799     23800     23799     23801
     23799     23802     23802     23803     23802     23804     23802     23805
     23805     23806     23805     23807     23805     23808     23808     23809
     23808     23810     23808     23811     23811     23812     23811     23813
     23811     23814     23814     23815     23814     23816     23814     23817
     23822     23821     23821     23818     23818     23819     23818     23820
     23818     23823     23826     23825     23825     23823     23823     23824
     23823     23827     23827     23828     23827     23829     23827     23834
     23834     23830     23830     23833     23830     23831     23830     23832
     23835     23836     23835     23837     23835     23838     23835     23833
     23838     23839     23838     23846     23838     23840     23846     23847
     23846     23848     23846     23849     23840     23841     23841     23843
     23841     23842     23843     23844     23843     23845     23843     23855
     23855     23856     23855     23857     23855     23858     23858     23859
     23858     23860     23858     23861     23861     23862     23861     23863
     23861     23864     23864     23865     23864     23866     23864     23867
     23867     23868     23867     23869     23867     23870     23870     23871
     23870     23872     23870     23873     23873     23874     23873     23878
     23873     23875     23878     23879     23878     23880     23878     23875
     23880     23881     23880     23882     23880     23883     23883     23884
     23883     23885     23883     23886     23886     23887     23886     23888
     23886     23889     23889     23890     23889     23891     23889     23892
     23892     23893     23892     23894     23892     23895     23895     23896
     23895     23897     23895     23898     23875     23876     23875     23877
     23849     23850     23850     23852     23850     23851     23852     23853
     23852     23854     23852     23899     23899     23900     23899     23901
     23899     23902     23902     23903     23902     23904     23902     23905
     23905     23906     23905     23907     23905     23908     23908     23909
     23908     23910     23908     23911     23911     23912     23911     23913
     23911     23914     23914     23915     23914     23916     23914     23917
     23917     23918     23917     23919     23917     23920     23920     23921
     23920     23922     23920     23923     23923     23924     23923     23925
     23923     23926     23926     23927     23926     23928     23926     23929
     23929     23930     23929     23931     23929     23932     23932     23933
     23932     23934     23932     23935     23935     23936     23935     23937
     23935     23938     23938     23939     23938     23940     23938     23941
     23946     23945     23945     23942     23942     23943     23942     23944
     23942     23947     23950     23949     23949     23947     23947     23948
     23947     23951     23951     23952     23951     23953     23951     23958
     23958     23954     23954     23957     23954     23955     23954     23956
     23959     23960     23959     23961     23959     23962     23959     23957
     23962     23963     23962     23970     23962     23964     23970     23971
     23970     23972     23970     23973     23964     23965     23965     23967
     23965     23966     23967     23968     23967     23969     23967     23979
     23979     23980     23979     23981     23979     23982     23982     23983
     23982     23984     23982     23985     23985     23986     23985     23987
     23985     23988     23988     23989     23988     23990     23988     23991
     23991     23992     23991     23993     23991     23994     23994     23995
     23994     23996     23994     23997     23997     23998     23997     23999
     23999     24000     23999     24001     24001     24002     24001     24003
     24001     24004     24004     24005     24004     24006     24004     24007
     24007     24008     24007     24009     24007     24010     24010     24011
     24010     24012     24010     24013     24013     24014     24013     24015
     24013     24016     24016     24017     24016     24018     24016     24019
     23973     23974     23974     23976     23974     23975     23976     23977
     23976     23978     23976     24020     24020     24021     24020     24022
     24020     24023     24023     24024     24023     24025     24023     24026
     24026     24027     24026     24028     24026     24029     24029     24030
     24029     24031     24029     24032     24032     24033     24032     24034
     24032     24035     24035     24036     24035     24037     24035     24038
     24038     24039     24038     24040     24038     24041     24041     24042
     24041     24043     24041     24044     24044     24045     24044     24046
     24044     24047     24047     24048     24047     24049     24047     24050
     24050     24051     24050     24052     24050     24053     24053     24054
     24053     24055     24053     24056     24056     24057     24056     24058
     24056     24059     24059     24060     24059     24061     24059     24062
     24063     24064     24063     24065     24063     24066     24063     24067
     24067     24068     24067     24069     24067     24070     24070     24071
     24070     24072     24070     24077     24077     24073     24073     24076
     24073     24074     24073     24075     24078     24079     24078     24080
     24078     24081     24078     24076     24081     24082     24081     24089
     24081     24083     24089     24090     24089     24091     24089     24092
     24083     24084     24084     24086     24084     24085     24086     24087
     24086     24088     24086     24098     24098     24099     24098     24100
     24098     24101     24101     24102     24101     24103     24101     24104
     24104     24105     24104     24106     24104     24107     24107     24108
     24107     24109     24107     24110     24110     24111     24110     24112
     24110     24113     24113     24114     24113     24115     24113     24116
     24116     24117     24116     24118     24118     24119     24118     24120
     24120     24121     24120     24122     24120     24123     24123     24124
     24123     24125     24123     24126     24126     24127     24126     24128
     24126     24129     24129     24130     24129     24131     24129     24132
     24132     24133     24132     24134     24132     24135     24135     24136
     24135     24137     24135     24138     24138     24139     24138     24140
     24138     24141     24141     24142     24141     24143     24141     24144
     24092     24093     24093     24095     24093     24094     24095     24096
     24095     24097     24095     24145     24145     24146     24145     24147
     24145     24148     24148     24149     24148     24150     24148     24151
     24151     24152     24151     24153     24151     24154     24154     24155
     24154     24156     24154     24157     24157     24158     24157     24159
     24157     24160     24160     24161     24160     24162     24160     24163
     24163     24164     24163     24165     24163     24166     24166     24167
     24166     24168     24166     24169     24169     24170     24169     24171
     24169     24172     24172     24173     24172     24174     24172     24175
     24175     24176     24175     24177     24175     24178     24178     24179
     24178     24180     24178     24181     24181     24182     24181     24183
     24181     24184     24184     24185     24184     24186     24184     24187
     24188     24189     24188     24190     24188     24191     24188     24192
     24192     24193     24192     24194     24192     24195     24195     24196
     24195     24197     24195     24202     24202     24198     24198     24201
     24198     24199     24198     24200     24203     24204     24203     24205
     24203     24206     24203     24201     24206     24207     24206     24214
     24206     24208     24214     24215     24214     24216     24214     24217
     24208     24209     24209     24211     24209     24210     24211     24212
     24211     24213     24211     24223     24223     24224     24223     24225
     24223     24226     24226     24227     24226     24228     24226     24229
     24229     24230     24229     24231     24229     24232     24232     24233
     24232     24234     24232     24235     24235     24236     24235     24237
     24235     24238     24238     24239     24238     24240     24238     24241
     24241     24242     24241     24246     24241     24243     24246     24247
     24246     24248     24246     24243     24248     24249     24248     24250
     24248     24251     24251     24252     24251     24253     24251     24254
     24254     24255     24254     24256     24254     24257     24257     24258
     24257     24259     24257     24260     24260     24261     24260     24262
     24260     24263     24263     24264     24263     24265     24263     24266
     24243     24244     24243     24245     24217     24218     24218     24220
     24218     24219     24220     24221     24220     24222     24220     24267
     24267     24268     24267     24269     24267     24270     24270     24271
     24270     24272     24270     24273     24273     24274     24273     24275
     24273     24276     24276     24277     24276     24278     24276     24279
     24279     24280     24279     24281     24279     24282     24282     24283
     24282     24284     24282     24285     24285     24286     24285     24287
     24285     24288     24288     24289     24288     24290     24288     24291
     24291     24292     24291     24293     24291     24294     24294     24295
     24294     24296     24294     24297     24297     24298     24297     24299
     24297     24300     24300     24301     24300     24302     24300     24303
     24303     24304     24303     24305     24303     24306     24306     24307
     24306     24308     24306     24309     24310     24311     24310     24312
     24310     24313     24310     24314     24314     24315     24314     24316
     24314     24317     24317     24318     24317     24319     24317     24324
     24324     24320     24320     24323     24320     24321     24320     24322
     24325     24326     24325     24327     24325     24328     24325     24323
     24328     24329     24328     24336     24328     24330     24336     24337
     24336     24338     24336     24339     24330     24331     24331     24333
     24331     24332     24333     24334     24333     24335     24333     24345
     24345     24346     24345     24347     24345     24348     24348     24349
     24348     24350     24348     24351     24351     24352     24351     24353
     24351     24354     24354     24355     24354     24356     24354     24357
     24357     24358     24357     24359     24357     24360     24360     24361
     24360     24362     24360     24363     24363     24364     24363     24365
     24365     24366     24365     24367     24367     24368     24367     24369
     24367     24370     24370     24371     24370     24372     24370     24373
     24373     24374     24373     24375     24373     24376     24376     24377
     24376     24378     24376     24379     24379     24380     24379     24381
     24379     24382     24382     24383     24382     24384     24382     24385
     24385     24386     24385     24387     24385     24388     24388     24389
     24388     24390     24388     24391     24339     24340     24340     24342
     24340     24341     24342     24343     24342     24344     24342     24392
     24392     24393     24392     24394     24392     24395     24395     24396
     24395     24397     24395     24398     24398     24399     24398     24400
     24398     24401     24401     24402     24401     24403     24401     24404
     24404     24405     24404     24406     24404     24407     24407     24408
     24407     24409     24407     24410     24410     24411     24410     24412
     24410     24413     24413     24414     24413     24415     24413     24416
     24416     24417     24416     24418     24416     24419     24419     24420
     24419     24421     24419     24422     24422     24423     24422     24424
     24422     24425     24425     24426     24425     24427     24425     24428
     24428     24429     24428     24430     24428     24431     24431     24432
     24431     24433     24431     24434     24435     24436     24435     24437
     24435     24438     24435     24439     24439     24440     24439     24441
     24439     24442     24442     24443     24442     24444     24442     24449
     24449     24445     24445     24448     24445     24446     24445     24447
     24450     24451     24450     24452     24450     24453     24450     24448
     24453     24454     24453     24461     24453     24455     24461     24462
     24461     24463     24461     24464     24455     24456     24456     24458
     24456     24457     24458     24459     24458     24460     24458     24470
     24470     24471     24470     24472     24470     24473     24473     24474
     24473     24475     24473     24476     24476     24477     24476     24478
     24476     24479     24479     24480     24479     24481     24479     24482
     24482     24483     24482     24484     24482     24485     24485     24486
     24485     24487     24485     24488     24488     24489     24488     24493
     24488     24490     24493     24494     24493     24495     24493     24490
     24495     24496     24495     24497     24495     24498     24498     24499
     24498     24500     24498     24501     24501     24502     24501     24503
     24501     24504     24504     24505     24504     24506     24504     24507
     24507     24508     24507     24509     24507     24510     24510     24511
     24510     24512     24510     24513     24490     24491     24490     24492
     24464     24465     24465     24467     24465     24466     24467     24468
     24467     24469     24467     24514     24514     24515     24514     24516
     24514     24517     24517     24518     24517     24519     24517     24520
     24520     24521     24520     24522     24520     24523     24523     24524
     24523     24525     24523     24526     24526     24527     24526     24528
     24526     24529     24529     24530     24529     24531     24529     24532
     24532     24533     24532     24534     24532     24535     24535     24536
     24535     24537     24535     24538     24538     24539     24538     24540
     24538     24541     24541     24542     24541     24543     24541     24544
     24544     24545     24544     24546     24544     24547     24547     24548
     24547     24549     24547     24550     24550     24551     24550     24552
     24550     24553     24553     24554     24553     24555     24553     24556
     24557     24558     24557     24559     24557     24560     24557     24561
     24561     24562     24561     24563     24561     24564     24564     24565
     24564     24566     24564     24571     24571     24567     24567     24570
     24567     24568     24567     24569     24572     24573     24572     24574
     24572     24575     24572     24570     24575     24576     24575     24583
     24575     24577     24583     24584     24583     24585     24583     24586
     24577     24578     24578     24580     24578     24579     24580     24581
     24580     24582     24580     24592     24592     24593     24592     24594
     24592     24595     24595     24596     24595     24597     24595     24598
     24598     24599     24598     24600     24598     24601     24601     24602
     24601     24603     24601     24604     24604     24605     24604     24606
     24604     24607     24607     24608     24607     24609     24607     24610
     24610     24611     24610     24615     24610     24612     24615     24616
     24615     24617     24615     24612     24617     24618     24617     24619
     24617     24620     24620     24621     24620     24622     24620     24623
     24623     24624     24623     24625     24623     24626     24626     24627
     24626     24628     24626     24629     24629     24630     24629     24631
     24629     24632     24632     24633     24632     24634     24632     24635
     24612     24613     24612     24614     24586     24587     24587     24589
     24587     24588     24589     24590     24589     24591     24589     24636
     24636     24637     24636     24638     24636     24639     24639     24640
     24639     24641     24639     24642     24642     24643     24642     24644
     24642     24645     24645     24646     24645     24647     24645     24648
     24648     24649     24648     24650     24648     24651     24651     24652
     24651     24653     24651     24654     24654     24655     24654     24656
     24654     24657     24657     24658     24657     24659     24657     24660
     24660     24661     24660     24662     24660     24663     24663     24664
     24663     24665     24663     24666     24666     24667     24666     24668
     24666     24669     24669     24670     24669     24671     24669     24672
     24672     24673     24672     24674     24672     24675     24676     24677
     24676     24678     24676     24679     24676     24680     24680     24681
     24680     24682     24680     24683     24683     24684     24683     24685
     24683     24690     24690     24686     24686     24689     24686     24687
     24686     24688     24691     24692     24691     24693     24691     24694
     24691     24689     24694     24695     24694     24702     24694     24696
     24702     24703     24702     24704     24702     24705     24696     24697
     24697     24699     24697     24698     24699     24700     24699     24701
     24699     24711     24711     24712     24711     24713     24711     24714
     24714     24715     24714     24716     24714     24717     24717     24718
     24717     24719     24717     24720     24720     24721     24720     24722
     24720     24723     24723     24724     24723     24725     24723     24726
     24726     24727     24726     24728     24726     24729     24729     24730
     24729     24734     24729     24731     24734     24735     24734     24736
     24734     24731     24736     24737     24736     24738     24736     24739
     24739     24740     24739     24741     24739     24742     24742     24743
     24742     24744     24742     24745     24745     24746     24745     24747
     24745     24748     24748     24749     24748     24750     24748     24751
     24751     24752     24751     24753     24751     24754     24731     24732
     24731     24733     24705     24706     24706     24708     24706     24707
     24708     24709     24708     24710     24708     24755     24755     24756
     24755     24757     24755     24758     24758     24759     24758     24760
     24758     24761     24761     24762     24761     24763     24761     24764
     24764     24765     24764     24766     24764     24767     24767     24768
     24767     24769     24767     24770     24770     24771     24770     24772
     24770     24773     24773     24774     24773     24775     24773     24776
     24776     24777     24776     24778     24776     24779     24779     24780
     24779     24781     24779     24782     24782     24783     24782     24784
     24782     24785     24785     24786     24785     24787     24785     24788
     24788     24789     24788     24790     24788     24791     24791     24792
     24791     24793     24791     24794     24794     24795     24794     24796
     24794     24797     24798     24799     24798     24800     24798     24801
     24798     24802     24802     24803     24802     24804     24802     24805
     24805     24806     24805     24807     24805     24812     24812     24808
     24808     24811     24808     24809     24808     24810     24813     24814
     24813     24815     24813     24816     24813     24811     24816     24817
     24816     24824     24816     24818     24824     24825     24824     24826
     24824     24827     24818     24819     24819     24821     24819     24820
     24821     24822     24821     24823     24821     24833     24833     24834
     24833     24835     24833     24836     24836     24837     24836     24838
     24836     24839     24839     24840     24839     24841     24839     24842
     24842     24843     24842     24844     24842     24845     24845     24846
     24845     24847     24845     24848     24848     24849     24848     24850
     24848     24851     24851     24852     24851     24856     24851     24853
     24856     24857     24856     24858     24856     24853     24858     24859
     24858     24860     24858     24861     24861     24862     24861     24863
     24861     24864     24864     24865     24864     24866     24864     24867
     24867     24868     24867     24869     24867     24870     24870     24871
     24870     24872     24870     24873     24873     24874     24873     24875
     24873     24876     24853     24854     24853     24855     24827     24828
     24828     24830     24828     24829     24830     24831     24830     24832
     24830     24877     24877     24878     24877     24879     24877     24880
     24880     24881     24880     24882     24880     24883     24883     24884
     24883     24885     24883     24886     24886     24887     24886     24888
     24886     24889     24889     24890     24889     24891     24889     24892
     24892     24893     24892     24894     24892     24895     24895     24896
     24895     24897     24895     24898     24898     24899     24898     24900
     24898     24901     24901     24902     24901     24903     24901     24904
     24904     24905     24904     24906     24904     24907     24907     24908
     24907     24909     24907     24910     24910     24911     24910     24912
     24910     24913     24913     24914     24913     24915     24913     24916

     48104 !NTHETA: angles
         1         5         6         1         5         7         1         5         8
         2         1         3         2         1         4         2         1         5
         3         1         4         3         1         5         4         1         5
         5         8         9         5         8        10         5         8        15
         6         5         7         6         5         8         7         5         8
         8        15        11         9         8        10         9         8        15
        10         8        15        11        14        16        12        11        13
        12        11        14        12        11        15        13        11        14
        13        11        15        14        11        15        14        16        17
        14        16        18        14        16        19        16        19        20
        16        19        21        16        19        27        17        16        18
        17        16        19        18        16        19        19        21        22
        19        27        28        19        27        29        19        27        30
        20        19        21        20        19        27        21        19        27
        21        22        23        21        22        24        22        24        25
        22        24        26        22        24        36        23        22        24
        24        36        37        24        36        38        24        36        39
        25        24        26        25        24        36        26        24        36
        27        30        31        28        27        29        28        27        30
        29        27        30        30        31        32        30        31        33
        31        33        34        31        33        35        31        33        80
        32        31        33        33        80        81        33        80        82
        33        80        83        34        33        35        34        33        80
        35        33        80        36        39        40        36        39        41
        36        39        42        37        36        38        37        36        39
        38        36        39        39        42        43        39        42        44
        39        42        45        40        39        41        40        39        42
        41        39        42        42        45        46        42        45        47
        42        45        48        43        42        44        43        42        45
        44        42        45        45        48        49        45        48        50
        45        48        51        46        45        47        46        45        48
        47        45        48        48        51        52        48        51        53
        48        51        54        49        48        50        49        48        51
        50        48        51        51        54        55        51        54        56
        51        54        59        52        51        53        52        51        54
        53        51        54        54        56        57        54        56        58
        54        56        59        54        59        56        54        59        60
        54        59        61        55        54        56        55        54        59
        56        54        59        56        59        60        56        59        61
        57        56        58        57        56        59        58        56        59
        59        61        62        59        61        63        59        61        64
        60        59        61        61        64        65        61        64        66
        61        64        67        62        61        63        62        61        64
        63        61        64        64        67        68        64        67        69
        64        67        70        65        64        66        65        64        67
        66        64        67        67        70        71        67        70        72
        67        70        73        68        67        69        68        67        70
        69        67        70        70        73        74        70        73        75
        70        73        76        71        70        72        71        70        73
        72        70        73        73        76        77        73        76        78
        73        76        79        74        73        75        74        73        76
        75        73        76        77        76        78        77        76        79
        78        76        79        80        83        84        80        83        85
        80        83        86        81        80        82        81        80        83
        82        80        83        83        86        87        83        86        88
        83        86        89        84        83        85        84        83        86
        85        83        86        86        89        90        86        89        91
        86        89        92        87        86        88        87        86        89
        88        86        89        89        92        93        89        92        94
        89        92        95        90        89        91        90        89        92
        91        89        92        92        95        96        92        95        97
        92        95        98        93        92        94        93        92        95
        94        92        95        95        98        99        95        98       100
        95        98       101        96        95        97        96        95        98
        97        95        98        98       101       102        98       101       103
        98       101       104        99        98       100        99        98       101
       100        98       101       101       104       105       101       104       106
       101       104       107       102       101       103       102       101       104
       103       101       104       104       107       108       104       107       109
       104       107       110       105       104       106       105       104       107
       106       104       107       107       110       111       107       110       112
       107       110       113       108       107       109       108       107       110
       109       107       110       110       113       114       110       113       115
       110       113       116       111       110       112       111       110       113
       112       110       113       113       116       117       113       116       118
       113       116       119       114       113       115       114       113       116
       115       113       116       116       119       120       116       119       121
       116       119       122       117       116       118       117       116       119
       118       116       119       120       119       121       120       119       122
       121       119       122       123       127       128       123       127       129
       123       127       130       124       123       125       124       123       126
       124       123       127       125       123       126       125       123       127
       126       123       127       127       130       131       127       130       132
       127       130       137       128       127       129       128       127       130
       129       127       130       130       137       133       131       130       132
       131       130       137       132       130       137       133       136       138
       134       133       135       134       133       136       134       133       137
       135       133       136       135       133       137       136       133       137
       136       138       139       136       138       140       136       138       141
       138       141       142       138       141       143       138       141       149
       139       138       140       139       138       141       140       138       141
       141       143       144       141       149       150       141       149       151
       141       149       152       142       141       143       142       141       149
       143       141       149       143       144       145       143       144       146
       144       146       147       144       146       148       144       146       158
       145       144       146       146       158       159       146       158       160
       146       158       161       147       146       148       147       146       158
       148       146       158       149       152       153       150       149       151
       150       149       152       151       149       152       152       153       154
       152       153       155       153       155       156       153       155       157
       153       155       202       154       153       155       155       202       203
       155       202       204       155       202       205       156       155       157
       156       155       202       157       155       202       158       161       162
       158       161       163       158       161       164       159       158       160
       159       158       161       160       158       161       161       164       165
       161       164       166       161       164       167       162       161       163
       162       161       164       163       161       164       164       167       168
       164       167       169       164       167       170       165       164       166
       165       164       167       166       164       167       167       170       171
       167       170       172       167       170       173       168       167       169
       168       167       170       169       167       170       170       173       174
       170       173       175       170       173       176       171       170       172
       171       170       173       172       170       173       173       176       177
       173       176       178       173       176       181       174       173       175
       174       173       176       175       173       176       176       178       179
       176       178       180       176       178       181       176       181       178
       176       181       182       176       181       183       177       176       178
       177       176       181       178       176       181       178       181       182
       178       181       183       179       178       180       179       178       181
       180       178       181       181       183       184       181       183       185
       181       183       186       182       181       183       183       186       187
       183       186       188       183       186       189       184       183       185
       184       183       186       185       183       186       186       189       190
       186       189       191       186       189       192       187       186       188
       187       186       189       188       186       189       189       192       193
       189       192       194       189       192       195       190       189       191
       190       189       192       191       189       192       192       195       196
       192       195       197       192       195       198       193       192       194
       193       192       195       194       192       195       195       198       199
       195       198       200       195       198       201       196       195       197
       196       195       198       197       195       198       199       198       200
       199       198       201       200       198       201       202       205       206
       202       205       207       202       205       208       203       202       204
       203       202       205       204       202       205       205       208       209
       205       208       210       205       208       211       206       205       207
       206       205       208       207       205       208       208       211       212
       208       211       213       208       211       214       209       208       210
       209       208       211       210       208       211       211       214       215
       211       214       216       211       214       217       212       211       213
       212       211       214       213       211       214       214       217       218
       214       217       219       214       217       220       215       214       216
       215       214       217       216       214       217       217       220       221
       217       220       222       217       220       223       218       217       219
       218       217       220       219       217       220       220       223       224
       220       223       225       220       223       226       221       220       222
       221       220       223       222       220       223       223       226       227
       223       226       228       223       226       229       224       223       225
       224       223       226       225       223       226       226       229       230
       226       229       231       226       229       232       227       226       228
       227       226       229       228       226       229       229       232       233
       229       232       234       229       232       235       230       229       231
       230       229       232       231       229       232       232       235       236
       232       235       237       232       235       238       233       232       234
       233       232       235       234       232       235       235       238       239
       235       238       240       235       238       241       236       235       237
       236       235       238       237       235       238       238       241       242
       238       241       243       238       241       244       239       238       240
       239       238       241       240       238       241       242       241       243
       242       241       244       243       241       244       245       249       250
       245       249       251       245       249       252       246       245       247
       246       245       248       246       245       249       247       245       248
       247       245       249       248       245       249       249       252       253
       249       252       254       249       252       259       250       249       251
       250       249       252       251       249       252       252       259       255
       253       252       254       253       252       259       254       252       259
       255       258       260       256       255       257       256       255       258
       256       255       259       257       255       258       257       255       259
       258       255       259       258       260       261       258       260       262
       258       260       263       260       263       264       260       263       265
       260       263       271       261       260       262       261       260       263
       262       260       263       263       265       266       263       271       272
       263       271       273       263       271       274       264       263       265
       264       263       271       265       263       271       265       266       267
       265       266       268       266       268       269       266       268       270
       266       268       280       267       266       268       268       280       281
       268       280       282       268       280       283       269       268       270
       269       268       280       270       268       280       271       274       275
       272       271       273       272       271       274       273       271       274
       274       275       276       274       275       277       275       277       278
       275       277       279       275       277       321       276       275       277
       277       321       322       277       321       323       277       321       324
       278       277       279       278       277       321       279       277       321
       280       283       284       280       283       285       280       283       286
       281       280       282       281       280       283       282       280       283
       283       286       287       283       286       288       283       286       289
       284       283       285       284       283       286       285       283       286
       286       289       290       286       289       291       286       289       292
       287       286       288       287       286       289       288       286       289
       289       292       293       289       292       294       289       292       295
       290       289       291       290       289       292       291       289       292
       292       295       296       292       295       297       292       295       298
       293       292       294       293       292       295       294       292       295
       295       298       299       295       298       300       296       295       297
       296       295       298       297       295       298       298       300       301
       298       300       302       299       298       300       300       302       303
       300       302       304       300       302       305       301       300       302
       302       305       306       302       305       307       302       305       308
       303       302       304       303       302       305       304       302       305
       305       308       309       305       308       310       305       308       311
       306       305       307       306       305       308       307       305       308
       308       311       312       308       311       313       308       311       314
       309       308       310       309       308       311       310       308       311
       311       314       315       311       314       316       311       314       317
       312       311       313       312       311       314       313       311       314
       314       317       318       314       317       319       314       317       320
       315       314       316       315       314       317       316       314       317
       318       317       319       318       317       320       319       317       320
       321       324       325       321       324       326       321       324       327
       322       321       323       322       321       324       323       321       324
       324       327       328       324       327       329       324       327       330
       325       324       326       325       324       327       326       324       327
       327       330       331       327       330       332       327       330       333
       328       327       329       328       327       330       329       327       330
       330       333       334       330       333       335       330       333       336
       331       330       332       331       330       333       332       330       333
       333       336       337       333       336       338       333       336       339
       334       333       335       334       333       336       335       333       336
       336       339       340       336       339       341       337       336       338
       337       336       339       338       336       339       339       341       342
       339       341       343       340       339       341       341       343       344
       341       343       345       341       343       346       342       341       343
       343       346       347       343       346       348       343       346       349
       344       343       345       344       343       346       345       343       346
       346       349       350       346       349       351       346       349       352
       347       346       348       347       346       349       348       346       349
       349       352       353       349       352       354       349       352       355
       350       349       351       350       349       352       351       349       352
       352       355       356       352       355       357       352       355       358
       353       352       354       353       352       355       354       352       355
       355       358       359       355       358       360       355       358       361
       356       355       357       356       355       358       357       355       358
       358       361       362       358       361       363       358       361       364
       359       358       360       359       358       361       360       358       361
       361       364       365       361       364       366       361       364       367
       362       361       363       362       361       364       363       361       364
       365       364       366       365       364       367       366       364       367
       368       372       373       368       372       374       368       372       375
       369       368       370       369       368       371       369       368       372
       370       368       371       370       368       372       371       368       372
       372       375       376       372       375       377       372       375       382
       373       372       374       373       372       375       374       372       375
       375       382       378       376       375       377       376       375       382
       377       375       382       378       381       383       379       378       380
       379       378       381       379       378       382       380       378       381
       380       378       382       381       378       382       381       383       384
       381       383       385       381       383       386       383       386       387
       383       386       388       383       386       394       384       383       385
       384       383       386       385       383       386       386       388       389
       386       394       395       386       394       396       386       394       397
       387       386       388       387       386       394       388       386       394
       388       389       390       388       389       391       389       391       392
       389       391       393       389       391       403       390       389       391
       391       403       404       391       403       405       391       403       406
       392       391       393       392       391       403       393       391       403
       394       397       398       395       394       396       395       394       397
       396       394       397       397       398       399       397       398       400
       398       400       401       398       400       402       398       400       447
       399       398       400       400       447       448       400       447       449
       400       447       450       401       400       402       401       400       447
       402       400       447       403       406       407       403       406       408
       403       406       409       404       403       405       404       403       406
       405       403       406       406       409       410       406       409       411
       406       409       412       407       406       408       407       406       409
       408       406       409       409       412       413       409       412       414
       409       412       415       410       409       411       410       409       412
       411       409       412       412       415       416       412       415       417
       412       415       418       413       412       414       413       412       415
       414       412       415       415       418       419       415       418       420
       415       418       421       416       415       417       416       415       418
       417       415       418       418       421       422       418       421       423
       418       421       426       419       418       420       419       418       421
       420       418       421       421       423       424       421       423       425
       421       423       426       421       426       423       421       426       427
       421       426       428       422       421       423       422       421       426
       423       421       426       423       426       427       423       426       428
       424       423       425       424       423       426       425       423       426
       426       428       429       426       428       430       426       428       431
       427       426       428       428       431       432       428       431       433
       428       431       434       429       428       430       429       428       431
       430       428       431       431       434       435       431       434       436
       431       434       437       432       431       433       432       431       434
       433       431       434       434       437       438       434       437       439
       434       437       440       435       434       436       435       434       437
       436       434       437       437       440       441       437       440       442
       437       440       443       438       437       439       438       437       440
       439       437       440       440       443       444       440       443       445
       440       443       446       441       440       442       441       440       443
       442       440       443       444       443       445       444       443       446
       445       443       446       447       450       451       447       450       452
       447       450       453       448       447       449       448       447       450
       449       447       450       450       453       454       450       453       455
       450       453       456       451       450       452       451       450       453
       452       450       453       453       456       457       453       456       458
       453       456       459       454       453       455       454       453       456
       455       453       456       456       459       460       456       459       461
       456       459       462       457       456       458       457       456       459
       458       456       459       459       462       463       459       462       464
       459       462       465       460       459       461       460       459       462
       461       459       462       462       465       466       462       465       467
       462       465       468       463       462       464       463       462       465
       464       462       465       465       468       469       465       468       470
       465       468       471       466       465       467       466       465       468
       467       465       468       468       471       472       468       471       473
       468       471       474       469       468       470       469       468       471
       470       468       471       471       474       475       471       474       476
       471       474       477       472       471       473       472       471       474
       473       471       474       474       477       478       474       477       479
       474       477       480       475       474       476       475       474       477
       476       474       477       477       480       481       477       480       482
       477       480       483       478       477       479       478       477       480
       479       477       480       480       483       484       480       483       485
       480       483       486       481       480       482       481       480       483
       482       480       483       483       486       487       483       486       488
       483       486       489       484       483       485       484       483       486
       485       483       486       487       486       488       487       486       489
       488       486       489       490       493       494       490       495       496
       490       495       497       490       495       499       491       490       492
       491       490       493       491       490       495       492       490       493
       492       490       495       493       490       495       495       497       498
       495       499       500       495       499       501       495       499       506
       496       495       497       496       495       499       497       495       499
       499       506       502       500       499       501       500       499       506
       501       499       506       502       505       507       503       502       504
       503       502       505       503       502       506       504       502       505
       504       502       506       505       502       506       505       507       508
       505       507       509       505       507       510       507       510       511
       507       510       512       507       510       518       508       507       509
       508       507       510       509       507       510       510       512       513
       510       518       519       510       518       520       510       518       521
       511       510       512       511       510       518       512       510       518
       512       513       514       512       513       515       513       515       516
       513       515       517       513       515       527       514       513       515
       515       527       528       515       527       529       515       527       530
       516       515       517       516       515       527       517       515       527
       518       521       522       519       518       520       519       518       521
       520       518       521       521       522       523       521       522       524
       522       524       525       522       524       526       522       524       568
       523       522       524       524       568       569       524       568       570
       524       568       571       525       524       526       525       524       568
       526       524       568       527       530       531       527       530       532
       527       530       533       528       527       529       528       527       530
       529       527       530       530       533       534       530       533       535
       530       533       536       531       530       532       531       530       533
       532       530       533       533       536       537       533       536       538
       533       536       539       534       533       535       534       533       536
       535       533       536       536       539       540       536       539       541
       536       539       542       537       536       538       537       536       539
       538       536       539       539       542       543       539       542       544
       539       542       545       540       539       541       540       539       542
       541       539       542       542       545       546       542       545       547
       543       542       544       543       542       545       544       542       545
       545       547       548       545       547       549       546       545       547
       547       549       550       547       549       551       547       549       552
       548       547       549       549       552       553       549       552       554
       549       552       555       550       549       551       550       549       552
       551       549       552       552       555       556       552       555       557
       552       555       558       553       552       554       553       552       555
       554       552       555       555       558       559       555       558       560
       555       558       561       556       555       557       556       555       558
       557       555       558       558       561       562       558       561       563
       558       561       564       559       558       560       559       558       561
       560       558       561       561       564       565       561       564       566
       561       564       567       562       561       563       562       561       564
       563       561       564       565       564       566       565       564       567
       566       564       567       568       571       572       568       571       573
       568       571       574       569       568       570       569       568       571
       570       568       571       571       574       575       571       574       576
       571       574       577       572       571       573       572       571       574
       573       571       574       574       577       578       574       577       579
       574       577       580       575       574       576       575       574       577
       576       574       577       577       580       581       577       580       582
       577       580       583       578       577       579       578       577       580
       579       577       580       580       583       584       580       583       585
       580       583       586       581       580       582       581       580       583
       582       580       583       583       586       587       583       586       588
       583       586       589       584       583       585       584       583       586
       585       583       586       586       589       590       586       589       591
       586       589       592       587       586       588       587       586       589
       588       586       589       589       592       593       589       592       594
       589       592       595       590       589       591       590       589       592
       591       589       592       592       595       596       592       595       597
       592       595       598       593       592       594       593       592       595
       594       592       595       595       598       599       595       598       600
       595       598       601       596       595       597       596       595       598
       597       595       598       598       601       602       598       601       603
       598       601       604       599       598       600       599       598       601
       600       598       601       601       604       605       601       604       606
       601       604       607       602       601       603       602       601       604
       603       601       604       604       607       608       604       607       609
       604       607       610       605       604       606       605       604       607
       606       604       607       608       607       609       608       607       610
       609       607       610       611       615       616       611       615       617
       611       615       618       612       611       613       612       611       614
       612       611       615       613       611       614       613       611       615
       614       611       615       615       618       619       615       618       620
       615       618       625       616       615       617       616       615       618
       617       615       618       618       625       621       619       618       620
       619       618       625       620       618       625       621       624       626
       622       621       623       622       621       624       622       621       625
       623       621       624       623       621       625       624       621       625
       624       626       627       624       626       628       624       626       629
       626       629       630       626       629       631       626       629       637
       627       626       628       627       626       629       628       626       629
       629       631       632       629       637       638       629       637       639
       629       637       640       630       629       631       630       629       637
       631       629       637       631       632       633       631       632       634
       632       634       635       632       634       636       632       634       646
       633       632       634       634       646       647       634       646       648
       634       646       649       635       634       636       635       634       646
       636       634       646       637       640       641       638       637       639
       638       637       640       639       637       640       640       641       642
       640       641       643       641       643       644       641       643       645
       641       643       690       642       641       643       643       690       691
       643       690       692       643       690       693       644       643       645
       644       643       690       645       643       690       646       649       650
       646       649       651       646       649       652       647       646       648
       647       646       649       648       646       649       649       652       653
       649       652       654       649       652       655       650       649       651
       650       649       652       651       649       652       652       655       656
       652       655       657       652       655       658       653       652       654
       653       652       655       654       652       655       655       658       659
       655       658       660       655       658       661       656       655       657
       656       655       658       657       655       658       658       661       662
       658       661       663       658       661       664       659       658       660
       659       658       661       660       658       661       661       664       665
       661       664       666       661       664       669       662       661       663
       662       661       664       663       661       664       664       666       667
       664       666       668       664       666       669       664       669       666
       664       669       670       664       669       671       665       664       666
       665       664       669       666       664       669       666       669       670
       666       669       671       667       666       668       667       666       669
       668       666       669       669       671       672       669       671       673
       669       671       674       670       669       671       671       674       675
       671       674       676       671       674       677       672       671       673
       672       671       674       673       671       674       674       677       678
       674       677       679       674       677       680       675       674       676
       675       674       677       676       674       677       677       680       681
       677       680       682       677       680       683       678       677       679
       678       677       680       679       677       680       680       683       684
       680       683       685       680       683       686       681       680       682
       681       680       683       682       680       683       683       686       687
       683       686       688       683       686       689       684       683       685
       684       683       686       685       683       686       687       686       688
       687       686       689       688       686       689       690       693       694
       690       693       695       690       693       696       691       690       692
       691       690       693       692       690       693       693       696       697
       693       696       698       693       696       699       694       693       695
       694       693       696       695       693       696       696       699       700
       696       699       701       696       699       702       697       696       698
       697       696       699       698       696       699       699       702       703
       699       702       704       699       702       705       700       699       701
       700       699       702       701       699       702       702       705       706
       702       705       707       702       705       708       703       702       704
       703       702       705       704       702       705       705       708       709
       705       708       710       705       708       711       706       705       707
       706       705       708       707       705       708       708       711       712
       708       711       713       708       711       714       709       708       710
       709       708       711       710       708       711       711       714       715
       711       714       716       711       714       717       712       711       713
       712       711       714       713       711       714       714       717       718
       714       717       719       714       717       720       715       714       716
       715       714       717       716       714       717       717       720       721
       717       720       722       717       720       723       718       717       719
       718       717       720       719       717       720       720       723       724
       720       723       725       720       723       726       721       720       722
       721       720       723       722       720       723       723       726       727
       723       726       728       723       726       729       724       723       725
       724       723       726       725       723       726       726       729       730
       726       729       731       726       729       732       727       726       728
       727       726       729       728       726       729       730       729       731
       730       729       732       731       729       732       733       737       738
       733       737       739       733       737       740       734       733       735
       734       733       736       734       733       737       735       733       736
       735       733       737       736       733       737       737       740       741
       737       740       742       737       740       747       738       737       739
       738       737       740       739       737       740       740       747       743
       741       740       742       741       740       747       742       740       747
       743       746       748       744       743       745       744       743       746
       744       743       747       745       743       746       745       743       747
       746       743       747       746       748       749       746       748       750
       746       748       751       748       751       752       748       751       753
       748       751       759       749       748       750       749       748       751
       750       748       751       751       753       754       751       759       760
       751       759       761       751       759       762       752       751       753
       752       751       759       753       751       759       753       754       755
       753       754       756       754       756       757       754       756       758
       754       756       768       755       754       756       756       768       769
       756       768       770       756       768       771       757       756       758
       757       756       768       758       756       768       759       762       763
       760       759       761       760       759       762       761       759       762
       762       763       764       762       763       765       763       765       766
       763       765       767       763       765       812       764       763       765
       765       812       813       765       812       814       765       812       815
       766       765       767       766       765       812       767       765       812
       768       771       772       768       771       773       768       771       774
       769       768       770       769       768       771       770       768       771
       771       774       775       771       774       776       771       774       777
       772       771       773       772       771       774       773       771       774
       774       777       778       774       777       779       774       777       780
       775       774       776       775       774       777       776       774       777
       777       780       781       777       780       782       777       780       783
       778       777       779       778       777       780       779       777       780
       780       783       784       780       783       785       780       783       786
       781       780       782       781       780       783       782       780       783
       783       786       787       783       786       788       783       786       791
       784       783       785       784       783       786       785       783       786
       786       788       789       786       788       790       786       788       791
       786       791       788       786       791       792       786       791       793
       787       786       788       787       786       791       788       786       791
       788       791       792       788       791       793       789       788       790
       789       788       791       790       788       791       791       793       794
       791       793       795       791       793       796       792       791       793
       793       796       797       793       796       798       793       796       799
       794       793       795       794       793       796       795       793       796
       796       799       800       796       799       801       796       799       802
       797       796       798       797       796       799       798       796       799
       799       802       803       799       802       804       799       802       805
       800       799       801       800       799       802       801       799       802
       802       805       806       802       805       807       802       805       808
       803       802       804       803       802       805       804       802       805
       805       808       809       805       808       810       805       808       811
       806       805       807       806       805       808       807       805       808
       809       808       810       809       808       811       810       808       811
       812       815       816       812       815       817       812       815       818
       813       812       814       813       812       815       814       812       815
       815       818       819       815       818       820       815       818       821
       816       815       817       816       815       818       817       815       818
       818       821       822       818       821       823       818       821       824
       819       818       820       819       818       821       820       818       821
       821       824       825       821       824       826       821       824       827
       822       821       823       822       821       824       823       821       824
       824       827       828       824       827       829       824       827       830
       825       824       826       825       824       827       826       824       827
       827       830       831       827       830       832       827       830       833
       828       827       829       828       827       830       829       827       830
       830       833       834       830       833       835       830       833       836
       831       830       832       831       830       833       832       830       833
       833       836       837       833       836       838       833       836       839
       834       833       835       834       833       836       835       833       836
       836       839       840       836       839       841       836       839       842
       837       836       838       837       836       839       838       836       839
       839       842       843       839       842       844       839       842       845
       840       839       841       840       839       842       841       839       842
       842       845       846       842       845       847       842       845       848
       843       842       844       843       842       845       844       842       845
       845       848       849       845       848       850       845       848       851
       846       845       847       846       845       848       847       845       848
       848       851       852       848       851       853       848       851       854
       849       848       850       849       848       851       850       848       851
       852       851       853       852       851       854       853       851       854
       855       859       860       855       859       861       855       859       862
       856       855       857       856       855       858       856       855       859
       857       855       858       857       855       859       858       855       859
       859       862       863       859       862       864       859       862       869
       860       859       861       860       859       862       861       859       862
       862       869       865       863       862       864       863       862       869
       864       862       869       865       868       870       866       865       867
       866       865       868       866       865       869       867       865       868
       867       865       869       868       865       869       868       870       871
       868       870       872       868       870       873       870       873       874
       870       873       875       870       873       881       871       870       872
       871       870       873       872       870       873       873       875       876
       873       881       882       873       881       883       873       881       884
       874       873       875       874       873       881       875       873       881
       875       876       877       875       876       878       876       878       879
       876       878       880       876       878       890       877       876       878
       878       890       891       878       890       892       878       890       893
       879       878       880       879       878       890       880       878       890
       881       884       885       882       881       883       882       881       884
       883       881       884       884       885       886       884       885       887
       885       887       888       885       887       889       885       887       934
       886       885       887       887       934       935       887       934       936
       887       934       937       888       887       889       888       887       934
       889       887       934       890       893       894       890       893       895
       890       893       896       891       890       892       891       890       893
       892       890       893       893       896       897       893       896       898
       893       896       899       894       893       895       894       893       896
       895       893       896       896       899       900       896       899       901
       896       899       902       897       896       898       897       896       899
       898       896       899       899       902       903       899       902       904
       899       902       905       900       899       901       900       899       902
       901       899       902       902       905       906       902       905       907
       902       905       908       903       902       904       903       902       905
       904       902       905       905       908       909       905       908       910
       905       908       913       906       905       907       906       905       908
       907       905       908       908       910       911       908       910       912
       908       910       913       908       913       910       908       913       914
       908       913       915       909       908       910       909       908       913
       910       908       913       910       913       914       910       913       915
       911       910       912       911       910       913       912       910       913
       913       915       916       913       915       917       913       915       918
       914       913       915       915       918       919       915       918       920
       915       918       921       916       915       917       916       915       918
       917       915       918       918       921       922       918       921       923
       918       921       924       919       918       920       919       918       921
       920       918       921       921       924       925       921       924       926
       921       924       927       922       921       923       922       921       924
       923       921       924       924       927       928       924       927       929
       924       927       930       925       924       926       925       924       927
       926       924       927       927       930       931       927       930       932
       927       930       933       928       927       929       928       927       930
       929       927       930       931       930       932       931       930       933
       932       930       933       934       937       938       934       937       939
       934       937       940       935       934       936       935       934       937
       936       934       937       937       940       941       937       940       942
       937       940       943       938       937       939       938       937       940
       939       937       940       940       943       944       940       943       945
       940       943       946       941       940       942       941       940       943
       942       940       943       943       946       947       943       946       948
       943       946       949       944       943       945       944       943       946
       945       943       946       946       949       950       946       949       951
       946       949       952       947       946       948       947       946       949
       948       946       949       949       952       953       949       952       954
       949       952       955       950       949       951       950       949       952
       951       949       952       952       955       956       952       955       957
       952       955       958       953       952       954       953       952       955
       954       952       955       955       958       959       955       958       960
       955       958       961       956       955       957       956       955       958
       957       955       958       958       961       962       958       961       963
       958       961       964       959       958       960       959       958       961
       960       958       961       961       964       965       961       964       966
       961       964       967       962       961       963       962       961       964
       963       961       964       964       967       968       964       967       969
       964       967       970       965       964       966       965       964       967
       966       964       967       967       970       971       967       970       972
       967       970       973       968       967       969       968       967       970
       969       967       970       970       973       974       970       973       975
       970       973       976       971       970       972       971       970       973
       972       970       973       974       973       975       974       973       976
       975       973       976       977       981       982       977       981       983
       977       981       984       978       977       979       978       977       980
       978       977       981       979       977       980       979       977       981
       980       977       981       981       984       985       981       984       986
       981       984       991       982       981       983       982       981       984
       983       981       984       984       991       987       985       984       986
       985       984       991       986       984       991       987       990       992
       988       987       989       988       987       990       988       987       991
       989       987       990       989       987       991       990       987       991
       990       992       993       990       992       994       990       992       995
       992       995       996       992       995       997       992       995      1003
       993       992       994       993       992       995       994       992       995
       995       997       998       995      1003      1004       995      1003      1005
       995      1003      1006       996       995       997       996       995      1003
       997       995      1003       997       998       999       997       998      1000
       998      1000      1001       998      1000      1002       998      1000      1012
       999       998      1000      1000      1012      1013      1000      1012      1014
      1000      1012      1015      1001      1000      1002      1001      1000      1012
      1002      1000      1012      1003      1006      1007      1004      1003      1005
      1004      1003      1006      1005      1003      1006      1006      1007      1008
      1006      1007      1009      1007      1009      1010      1007      1009      1011
      1007      1009      1059      1008      1007      1009      1009      1059      1060
      1009      1059      1061      1009      1059      1062      1010      1009      1011
      1010      1009      1059      1011      1009      1059      1012      1015      1016
      1012      1015      1017      1012      1015      1018      1013      1012      1014
      1013      1012      1015      1014      1012      1015      1015      1018      1019
      1015      1018      1020      1015      1018      1021      1016      1015      1017
      1016      1015      1018      1017      1015      1018      1018      1021      1022
      1018      1021      1023      1018      1021      1024      1019      1018      1020
      1019      1018      1021      1020      1018      1021      1021      1024      1025
      1021      1024      1026      1021      1024      1027      1022      1021      1023
      1022      1021      1024      1023      1021      1024      1024      1027      1028
      1024      1027      1029      1024      1027      1030      1025      1024      1026
      1025      1024      1027      1026      1024      1027      1027      1030      1031
      1027      1030      1032      1028      1027      1029      1028      1027      1030
      1029      1027      1030      1030      1032      1033      1030      1032      1034
      1031      1030      1032      1032      1034      1035      1032      1034      1036
      1032      1034      1037      1033      1032      1034      1034      1037      1038
      1034      1037      1039      1034      1037      1040      1035      1034      1036
      1035      1034      1037      1036      1034      1037      1037      1040      1041
      1037      1040      1042      1037      1040      1043      1038      1037      1039
      1038      1037      1040      1039      1037      1040      1040      1043      1044
      1040      1043      1045      1040      1043      1046      1041      1040      1042
      1041      1040      1043      1042      1040      1043      1043      1046      1047
      1043      1046      1048      1043      1046      1049      1044      1043      1045
      1044      1043      1046      1045      1043      1046      1046      1049      1050
      1046      1049      1051      1046      1049      1052      1047      1046      1048
      1047      1046      1049      1048      1046      1049      1049      1052      1053
      1049      1052      1054      1049      1052      1055      1050      1049      1051
      1050      1049      1052      1051      1049      1052      1052      1055      1056
      1052      1055      1057      1052      1055      1058      1053      1052      1054
      1053      1052      1055      1054      1052      1055      1056      1055      1057
      1056      1055      1058      1057      1055      1058      1059      1062      1063
      1059      1062      1064      1059      1062      1065      1060      1059      1061
      1060      1059      1062      1061      1059      1062      1062      1065      1066
      1062      1065      1067      1062      1065      1068      1063      1062      1064
      1063      1062      1065      1064      1062      1065      1065      1068      1069
      1065      1068      1070      1065      1068      1071      1066      1065      1067
      1066      1065      1068      1067      1065      1068      1068      1071      1072
      1068      1071      1073      1068      1071      1074      1069      1068      1070
      1069      1068      1071      1070      1068      1071      1071      1074      1075
      1071      1074      1076      1071      1074      1077      1072      1071      1073
      1072      1071      1074      1073      1071      1074      1074      1077      1078
      1074      1077      1079      1074      1077      1080      1075      1074      1076
      1075      1074      1077      1076      1074      1077      1077      1080      1081
      1077      1080      1082      1077      1080      1083      1078      1077      1079
      1078      1077      1080      1079      1077      1080      1080      1083      1084
      1080      1083      1085      1080      1083      1086      1081      1080      1082
      1081      1080      1083      1082      1080      1083      1083      1086      1087
      1083      1086      1088      1083      1086      1089      1084      1083      1085
      1084      1083      1086      1085      1083      1086      1086      1089      1090
      1086      1089      1091      1086      1089      1092      1087      1086      1088
      1087      1086      1089      1088      1086      1089      1089      1092      1093
      1089      1092      1094      1089      1092      1095      1090      1089      1091
      1090      1089      1092      1091      1089      1092      1092      1095      1096
      1092      1095      1097      1092      1095      1098      1093      1092      1094
      1093      1092      1095      1094      1092      1095      1095      1098      1099
      1095      1098      1100      1095      1098      1101      1096      1095      1097
      1096      1095      1098      1097      1095      1098      1099      1098      1100
      1099      1098      1101      1100      1098      1101      1102      1106      1107
      1102      1106      1108      1102      1106      1109      1103      1102      1104
      1103      1102      1105      1103      1102      1106      1104      1102      1105
      1104      1102      1106      1105      1102      1106      1106      1109      1110
      1106      1109      1111      1106      1109      1116      1107      1106      1108
      1107      1106      1109      1108      1106      1109      1109      1116      1112
      1110      1109      1111      1110      1109      1116      1111      1109      1116
      1112      1115      1117      1113      1112      1114      1113      1112      1115
      1113      1112      1116      1114      1112      1115      1114      1112      1116
      1115      1112      1116      1115      1117      1118      1115      1117      1119
      1115      1117      1120      1117      1120      1121      1117      1120      1122
      1117      1120      1128      1118      1117      1119      1118      1117      1120
      1119      1117      1120      1120      1122      1123      1120      1128      1129
      1120      1128      1130      1120      1128      1131      1121      1120      1122
      1121      1120      1128      1122      1120      1128      1122      1123      1124
      1122      1123      1125      1123      1125      1126      1123      1125      1127
      1123      1125      1137      1124      1123      1125      1125      1137      1138
      1125      1137      1139      1125      1137      1140      1126      1125      1127
      1126      1125      1137      1127      1125      1137      1128      1131      1132
      1129      1128      1130      1129      1128      1131      1130      1128      1131
      1131      1132      1133      1131      1132      1134      1132      1134      1135
      1132      1134      1136      1132      1134      1181      1133      1132      1134
      1134      1181      1182      1134      1181      1183      1134      1181      1184
      1135      1134      1136      1135      1134      1181      1136      1134      1181
      1137      1140      1141      1137      1140      1142      1137      1140      1143
      1138      1137      1139      1138      1137      1140      1139      1137      1140
      1140      1143      1144      1140      1143      1145      1140      1143      1146
      1141      1140      1142      1141      1140      1143      1142      1140      1143
      1143      1146      1147      1143      1146      1148      1143      1146      1149
      1144      1143      1145      1144      1143      1146      1145      1143      1146
      1146      1149      1150      1146      1149      1151      1146      1149      1152
      1147      1146      1148      1147      1146      1149      1148      1146      1149
      1149      1152      1153      1149      1152      1154      1149      1152      1155
      1150      1149      1151      1150      1149      1152      1151      1149      1152
      1152      1155      1156      1152      1155      1157      1152      1155      1160
      1153      1152      1154      1153      1152      1155      1154      1152      1155
      1155      1157      1158      1155      1157      1159      1155      1157      1160
      1155      1160      1157      1155      1160      1161      1155      1160      1162
      1156      1155      1157      1156      1155      1160      1157      1155      1160
      1157      1160      1161      1157      1160      1162      1158      1157      1159
      1158      1157      1160      1159      1157      1160      1160      1162      1163
      1160      1162      1164      1160      1162      1165      1161      1160      1162
      1162      1165      1166      1162      1165      1167      1162      1165      1168
      1163      1162      1164      1163      1162      1165      1164      1162      1165
      1165      1168      1169      1165      1168      1170      1165      1168      1171
      1166      1165      1167      1166      1165      1168      1167      1165      1168
      1168      1171      1172      1168      1171      1173      1168      1171      1174
      1169      1168      1170      1169      1168      1171      1170      1168      1171
      1171      1174      1175      1171      1174      1176      1171      1174      1177
      1172      1171      1173      1172      1171      1174      1173      1171      1174
      1174      1177      1178      1174      1177      1179      1174      1177      1180
      1175      1174      1176      1175      1174      1177      1176      1174      1177
      1178      1177      1179      1178      1177      1180      1179      1177      1180
      1181      1184      1185      1181      1184      1186      1181      1184      1187
      1182      1181      1183      1182      1181      1184      1183      1181      1184
      1184      1187      1188      1184      1187      1189      1184      1187      1190
      1185      1184      1186      1185      1184      1187      1186      1184      1187
      1187      1190      1191      1187      1190      1192      1187      1190      1193
      1188      1187      1189      1188      1187      1190      1189      1187      1190
      1190      1193      1194      1190      1193      1195      1190      1193      1196
      1191      1190      1192      1191      1190      1193      1192      1190      1193
      1193      1196      1197      1193      1196      1198      1193      1196      1199
      1194      1193      1195      1194      1193      1196      1195      1193      1196
      1196      1199      1200      1196      1199      1201      1196      1199      1202
      1197      1196      1198      1197      1196      1199      1198      1196      1199
      1199      1202      1203      1199      1202      1204      1199      1202      1205
      1200      1199      1201      1200      1199      1202      1201      1199      1202
      1202      1205      1206      1202      1205      1207      1202      1205      1208
      1203      1202      1204      1203      1202      1205      1204      1202      1205
      1205      1208      1209      1205      1208      1210      1205      1208      1211
      1206      1205      1207      1206      1205      1208      1207      1205      1208
      1208      1211      1212      1208      1211      1213      1208      1211      1214
      1209      1208      1210      1209      1208      1211      1210      1208      1211
      1211      1214      1215      1211      1214      1216      1211      1214      1217
      1212      1211      1213      1212      1211      1214      1213      1211      1214
      1214      1217      1218      1214      1217      1219      1214      1217      1220
      1215      1214      1216      1215      1214      1217      1216      1214      1217
      1217      1220      1221      1217      1220      1222      1217      1220      1223
      1218      1217      1219      1218      1217      1220      1219      1217      1220
      1221      1220      1222      1221      1220      1223      1222      1220      1223
      1224      1228      1229      1224      1228      1230      1224      1228      1231
      1225      1224      1226      1225      1224      1227      1225      1224      1228
      1226      1224      1227      1226      1224      1228      1227      1224      1228
      1228      1231      1232      1228      1231      1233      1228      1231      1238
      1229      1228      1230      1229      1228      1231      1230      1228      1231
      1231      1238      1234      1232      1231      1233      1232      1231      1238
      1233      1231      1238      1234      1237      1239      1235      1234      1236
      1235      1234      1237      1235      1234      1238      1236      1234      1237
      1236      1234      1238      1237      1234      1238      1237      1239      1240
      1237      1239      1241      1237      1239      1242      1239      1242      1243
      1239      1242      1244      1239      1242      1250      1240      1239      1241
      1240      1239      1242      1241      1239      1242      1242      1244      1245
      1242      1250      1251      1242      1250      1252      1242      1250      1253
      1243      1242      1244      1243      1242      1250      1244      1242      1250
      1244      1245      1246      1244      1245      1247      1245      1247      1248
      1245      1247      1249      1245      1247      1259      1246      1245      1247
      1247      1259      1260      1247      1259      1261      1247      1259      1262
      1248      1247      1249      1248      1247      1259      1249      1247      1259
      1250      1253      1254      1251      1250      1252      1251      1250      1253
      1252      1250      1253      1253      1254      1255      1253      1254      1256
      1254      1256      1257      1254      1256      1258      1254      1256      1306
      1255      1254      1256      1256      1306      1307      1256      1306      1308
      1256      1306      1309      1257      1256      1258      1257      1256      1306
      1258      1256      1306      1259      1262      1263      1259      1262      1264
      1259      1262      1265      1260      1259      1261      1260      1259      1262
      1261      1259      1262      1262      1265      1266      1262      1265      1267
      1262      1265      1268      1263      1262      1264      1263      1262      1265
      1264      1262      1265      1265      1268      1269      1265      1268      1270
      1265      1268      1271      1266      1265      1267      1266      1265      1268
      1267      1265      1268      1268      1271      1272      1268      1271      1273
      1268      1271      1274      1269      1268      1270      1269      1268      1271
      1270      1268      1271      1271      1274      1275      1271      1274      1276
      1271      1274      1277      1272      1271      1273      1272      1271      1274
      1273      1271      1274      1274      1277      1278      1274      1277      1279
      1275      1274      1276      1275      1274      1277      1276      1274      1277
      1277      1279      1280      1277      1279      1281      1278      1277      1279
      1279      1281      1282      1279      1281      1283      1279      1281      1284
      1280      1279      1281      1281      1284      1285      1281      1284      1286
      1281      1284      1287      1282      1281      1283      1282      1281      1284
      1283      1281      1284      1284      1287      1288      1284      1287      1289
      1284      1287      1290      1285      1284      1286      1285      1284      1287
      1286      1284      1287      1287      1290      1291      1287      1290      1292
      1287      1290      1293      1288      1287      1289      1288      1287      1290
      1289      1287      1290      1290      1293      1294      1290      1293      1295
      1290      1293      1296      1291      1290      1292      1291      1290      1293
      1292      1290      1293      1293      1296      1297      1293      1296      1298
      1293      1296      1299      1294      1293      1295      1294      1293      1296
      1295      1293      1296      1296      1299      1300      1296      1299      1301
      1296      1299      1302      1297      1296      1298      1297      1296      1299
      1298      1296      1299      1299      1302      1303      1299      1302      1304
      1299      1302      1305      1300      1299      1301      1300      1299      1302
      1301      1299      1302      1303      1302      1304      1303      1302      1305
      1304      1302      1305      1306      1309      1310      1306      1309      1311
      1306      1309      1312      1307      1306      1308      1307      1306      1309
      1308      1306      1309      1309      1312      1313      1309      1312      1314
      1309      1312      1315      1310      1309      1311      1310      1309      1312
      1311      1309      1312      1312      1315      1316      1312      1315      1317
      1312      1315      1318      1313      1312      1314      1313      1312      1315
      1314      1312      1315      1315      1318      1319      1315      1318      1320
      1315      1318      1321      1316      1315      1317      1316      1315      1318
      1317      1315      1318      1318      1321      1322      1318      1321      1323
      1318      1321      1324      1319      1318      1320      1319      1318      1321
      1320      1318      1321      1321      1324      1325      1321      1324      1326
      1321      1324      1327      1322      1321      1323      1322      1321      1324
      1323      1321      1324      1324      1327      1328      1324      1327      1329
      1324      1327      1330      1325      1324      1326      1325      1324      1327
      1326      1324      1327      1327      1330      1331      1327      1330      1332
      1327      1330      1333      1328      1327      1329      1328      1327      1330
      1329      1327      1330      1330      1333      1334      1330      1333      1335
      1330      1333      1336      1331      1330      1332      1331      1330      1333
      1332      1330      1333      1333      1336      1337      1333      1336      1338
      1333      1336      1339      1334      1333      1335      1334      1333      1336
      1335      1333      1336      1336      1339      1340      1336      1339      1341
      1336      1339      1342      1337      1336      1338      1337      1336      1339
      1338      1336      1339      1339      1342      1343      1339      1342      1344
      1339      1342      1345      1340      1339      1341      1340      1339      1342
      1341      1339      1342      1342      1345      1346      1342      1345      1347
      1342      1345      1348      1343      1342      1344      1343      1342      1345
      1344      1342      1345      1346      1345      1347      1346      1345      1348
      1347      1345      1348      1349      1353      1354      1349      1353      1355
      1349      1353      1356      1350      1349      1351      1350      1349      1352
      1350      1349      1353      1351      1349      1352      1351      1349      1353
      1352      1349      1353      1353      1356      1357      1353      1356      1358
      1353      1356      1363      1354      1353      1355      1354      1353      1356
      1355      1353      1356      1356      1363      1359      1357      1356      1358
      1357      1356      1363      1358      1356      1363      1359      1362      1364
      1360      1359      1361      1360      1359      1362      1360      1359      1363
      1361      1359      1362      1361      1359      1363      1362      1359      1363
      1362      1364      1365      1362      1364      1366      1362      1364      1367
      1364      1367      1368      1364      1367      1369      1364      1367      1375
      1365      1364      1366      1365      1364      1367      1366      1364      1367
      1367      1369      1370      1367      1375      1376      1367      1375      1377
      1367      1375      1378      1368      1367      1369      1368      1367      1375
      1369      1367      1375      1369      1370      1371      1369      1370      1372
      1370      1372      1373      1370      1372      1374      1370      1372      1384
      1371      1370      1372      1372      1384      1385      1372      1384      1386
      1372      1384      1387      1373      1372      1374      1373      1372      1384
      1374      1372      1384      1375      1378      1379      1376      1375      1377
      1376      1375      1378      1377      1375      1378      1378      1379      1380
      1378      1379      1381      1379      1381      1382      1379      1381      1383
      1379      1381      1428      1380      1379      1381      1381      1428      1429
      1381      1428      1430      1381      1428      1431      1382      1381      1383
      1382      1381      1428      1383      1381      1428      1384      1387      1388
      1384      1387      1389      1384      1387      1390      1385      1384      1386
      1385      1384      1387      1386      1384      1387      1387      1390      1391
      1387      1390      1392      1387      1390      1393      1388      1387      1389
      1388      1387      1390      1389      1387      1390      1390      1393      1394
      1390      1393      1395      1390      1393      1396      1391      1390      1392
      1391      1390      1393      1392      1390      1393      1393      1396      1397
      1393      1396      1398      1393      1396      1399      1394      1393      1395
      1394      1393      1396      1395      1393      1396      1396      1399      1400
      1396      1399      1401      1396      1399      1402      1397      1396      1398
      1397      1396      1399      1398      1396      1399      1399      1402      1403
      1399      1402      1404      1399      1402      1407      1400      1399      1401
      1400      1399      1402      1401      1399      1402      1402      1404      1405
      1402      1404      1406      1402      1404      1407      1402      1407      1404
      1402      1407      1408      1402      1407      1409      1403      1402      1404
      1403      1402      1407      1404      1402      1407      1404      1407      1408
      1404      1407      1409      1405      1404      1406      1405      1404      1407
      1406      1404      1407      1407      1409      1410      1407      1409      1411
      1407      1409      1412      1408      1407      1409      1409      1412      1413
      1409      1412      1414      1409      1412      1415      1410      1409      1411
      1410      1409      1412      1411      1409      1412      1412      1415      1416
      1412      1415      1417      1412      1415      1418      1413      1412      1414
      1413      1412      1415      1414      1412      1415      1415      1418      1419
      1415      1418      1420      1415      1418      1421      1416      1415      1417
      1416      1415      1418      1417      1415      1418      1418      1421      1422
      1418      1421      1423      1418      1421      1424      1419      1418      1420
      1419      1418      1421      1420      1418      1421      1421      1424      1425
      1421      1424      1426      1421      1424      1427      1422      1421      1423
      1422      1421      1424      1423      1421      1424      1425      1424      1426
      1425      1424      1427      1426      1424      1427      1428      1431      1432
      1428      1431      1433      1428      1431      1434      1429      1428      1430
      1429      1428      1431      1430      1428      1431      1431      1434      1435
      1431      1434      1436      1431      1434      1437      1432      1431      1433
      1432      1431      1434      1433      1431      1434      1434      1437      1438
      1434      1437      1439      1434      1437      1440      1435      1434      1436
      1435      1434      1437      1436      1434      1437      1437      1440      1441
      1437      1440      1442      1437      1440      1443      1438      1437      1439
      1438      1437      1440      1439      1437      1440      1440      1443      1444
      1440      1443      1445      1440      1443      1446      1441      1440      1442
      1441      1440      1443      1442      1440      1443      1443      1446      1447
      1443      1446      1448      1443      1446      1449      1444      1443      1445
      1444      1443      1446      1445      1443      1446      1446      1449      1450
      1446      1449      1451      1446      1449      1452      1447      1446      1448
      1447      1446      1449      1448      1446      1449      1449      1452      1453
      1449      1452      1454      1449      1452      1455      1450      1449      1451
      1450      1449      1452      1451      1449      1452      1452      1455      1456
      1452      1455      1457      1452      1455      1458      1453      1452      1454
      1453      1452      1455      1454      1452      1455      1455      1458      1459
      1455      1458      1460      1455      1458      1461      1456      1455      1457
      1456      1455      1458      1457      1455      1458      1458      1461      1462
      1458      1461      1463      1458      1461      1464      1459      1458      1460
      1459      1458      1461      1460      1458      1461      1461      1464      1465
      1461      1464      1466      1461      1464      1467      1462      1461      1463
      1462      1461      1464      1463      1461      1464      1464      1467      1468
      1464      1467      1469      1464      1467      1470      1465      1464      1466
      1465      1464      1467      1466      1464      1467      1468      1467      1469
      1468      1467      1470      1469      1467      1470      1471      1474      1475
      1471      1476      1477      1471      1476      1478      1471      1476      1480
      1472      1471      1473      1472      1471      1474      1472      1471      1476
      1473      1471      1474      1473      1471      1476      1474      1471      1476
      1476      1478      1479      1476      1480      1481      1476      1480      1482
      1476      1480      1487      1477      1476      1478      1477      1476      1480
      1478      1476      1480      1480      1487      1483      1481      1480      1482
      1481      1480      1487      1482      1480      1487      1483      1486      1488
      1484      1483      1485      1484      1483      1486      1484      1483      1487
      1485      1483      1486      1485      1483      1487      1486      1483      1487
      1486      1488      1489      1486      1488      1490      1486      1488      1491
      1488      1491      1492      1488      1491      1493      1488      1491      1499
      1489      1488      1490      1489      1488      1491      1490      1488      1491
      1491      1493      1494      1491      1499      1500      1491      1499      1501
      1491      1499      1502      1492      1491      1493      1492      1491      1499
      1493      1491      1499      1493      1494      1495      1493      1494      1496
      1494      1496      1497      1494      1496      1498      1494      1496      1508
      1495      1494      1496      1496      1508      1509      1496      1508      1510
      1496      1508      1511      1497      1496      1498      1497      1496      1508
      1498      1496      1508      1499      1502      1503      1500      1499      1501
      1500      1499      1502      1501      1499      1502      1502      1503      1504
      1502      1503      1505      1503      1505      1506      1503      1505      1507
      1503      1505      1552      1504      1503      1505      1505      1552      1553
      1505      1552      1554      1505      1552      1555      1506      1505      1507
      1506      1505      1552      1507      1505      1552      1508      1511      1512
      1508      1511      1513      1508      1511      1514      1509      1508      1510
      1509      1508      1511      1510      1508      1511      1511      1514      1515
      1511      1514      1516      1511      1514      1517      1512      1511      1513
      1512      1511      1514      1513      1511      1514      1514      1517      1518
      1514      1517      1519      1514      1517      1520      1515      1514      1516
      1515      1514      1517      1516      1514      1517      1517      1520      1521
      1517      1520      1522      1517      1520      1523      1518      1517      1519
      1518      1517      1520      1519      1517      1520      1520      1523      1524
      1520      1523      1525      1520      1523      1526      1521      1520      1522
      1521      1520      1523      1522      1520      1523      1523      1526      1527
      1523      1526      1528      1523      1526      1531      1524      1523      1525
      1524      1523      1526      1525      1523      1526      1526      1528      1529
      1526      1528      1530      1526      1528      1531      1526      1531      1528
      1526      1531      1532      1526      1531      1533      1527      1526      1528
      1527      1526      1531      1528      1526      1531      1528      1531      1532
      1528      1531      1533      1529      1528      1530      1529      1528      1531
      1530      1528      1531      1531      1533      1534      1531      1533      1535
      1531      1533      1536      1532      1531      1533      1533      1536      1537
      1533      1536      1538      1533      1536      1539      1534      1533      1535
      1534      1533      1536      1535      1533      1536      1536      1539      1540
      1536      1539      1541      1536      1539      1542      1537      1536      1538
      1537      1536      1539      1538      1536      1539      1539      1542      1543
      1539      1542      1544      1539      1542      1545      1540      1539      1541
      1540      1539      1542      1541      1539      1542      1542      1545      1546
      1542      1545      1547      1542      1545      1548      1543      1542      1544
      1543      1542      1545      1544      1542      1545      1545      1548      1549
      1545      1548      1550      1545      1548      1551      1546      1545      1547
      1546      1545      1548      1547      1545      1548      1549      1548      1550
      1549      1548      1551      1550      1548      1551      1552      1555      1556
      1552      1555      1557      1552      1555      1558      1553      1552      1554
      1553      1552      1555      1554      1552      1555      1555      1558      1559
      1555      1558      1560      1555      1558      1561      1556      1555      1557
      1556      1555      1558      1557      1555      1558      1558      1561      1562
      1558      1561      1563      1558      1561      1564      1559      1558      1560
      1559      1558      1561      1560      1558      1561      1561      1564      1565
      1561      1564      1566      1561      1564      1567      1562      1561      1563
      1562      1561      1564      1563      1561      1564      1564      1567      1568
      1564      1567      1569      1564      1567      1570      1565      1564      1566
      1565      1564      1567      1566      1564      1567      1567      1570      1571
      1567      1570      1572      1567      1570      1573      1568      1567      1569
      1568      1567      1570      1569      1567      1570      1570      1573      1574
      1570      1573      1575      1570      1573      1576      1571      1570      1572
      1571      1570      1573      1572      1570      1573      1573      1576      1577
      1573      1576      1578      1573      1576      1579      1574      1573      1575
      1574      1573      1576      1575      1573      1576      1576      1579      1580
      1576      1579      1581      1576      1579      1582      1577      1576      1578
      1577      1576      1579      1578      1576      1579      1579      1582      1583
      1579      1582      1584      1579      1582      1585      1580      1579      1581
      1580      1579      1582      1581      1579      1582      1582      1585      1586
      1582      1585      1587      1582      1585      1588      1583      1582      1584
      1583      1582      1585      1584      1582      1585      1585      1588      1589
      1585      1588      1590      1585      1588      1591      1586      1585      1587
      1586      1585      1588      1587      1585      1588      1588      1591      1592
      1588      1591      1593      1588      1591      1594      1589      1588      1590
      1589      1588      1591      1590      1588      1591      1592      1591      1593
      1592      1591      1594      1593      1591      1594      1595      1599      1600
      1595      1599      1601      1595      1599      1602      1596      1595      1597
      1596      1595      1598      1596      1595      1599      1597      1595      1598
      1597      1595      1599      1598      1595      1599      1599      1602      1603
      1599      1602      1604      1599      1602      1609      1600      1599      1601
      1600      1599      1602      1601      1599      1602      1602      1609      1605
      1603      1602      1604      1603      1602      1609      1604      1602      1609
      1605      1608      1610      1606      1605      1607      1606      1605      1608
      1606      1605      1609      1607      1605      1608      1607      1605      1609
      1608      1605      1609      1608      1610      1611      1608      1610      1612
      1608      1610      1613      1610      1613      1614      1610      1613      1615
      1610      1613      1621      1611      1610      1612      1611      1610      1613
      1612      1610      1613      1613      1615      1616      1613      1621      1622
      1613      1621      1623      1613      1621      1624      1614      1613      1615
      1614      1613      1621      1615      1613      1621      1615      1616      1617
      1615      1616      1618      1616      1618      1619      1616      1618      1620
      1616      1618      1630      1617      1616      1618      1618      1630      1631
      1618      1630      1632      1618      1630      1633      1619      1618      1620
      1619      1618      1630      1620      1618      1630      1621      1624      1625
      1622      1621      1623      1622      1621      1624      1623      1621      1624
      1624      1625      1626      1624      1625      1627      1625      1627      1628
      1625      1627      1629      1625      1627      1674      1626      1625      1627
      1627      1674      1675      1627      1674      1676      1627      1674      1677
      1628      1627      1629      1628      1627      1674      1629      1627      1674
      1630      1633      1634      1630      1633      1635      1630      1633      1636
      1631      1630      1632      1631      1630      1633      1632      1630      1633
      1633      1636      1637      1633      1636      1638      1633      1636      1639
      1634      1633      1635      1634      1633      1636      1635      1633      1636
      1636      1639      1640      1636      1639      1641      1636      1639      1642
      1637      1636      1638      1637      1636      1639      1638      1636      1639
      1639      1642      1643      1639      1642      1644      1639      1642      1645
      1640      1639      1641      1640      1639      1642      1641      1639      1642
      1642      1645      1646      1642      1645      1647      1642      1645      1648
      1643      1642      1644      1643      1642      1645      1644      1642      1645
      1645      1648      1649      1645      1648      1650      1645      1648      1653
      1646      1645      1647      1646      1645      1648      1647      1645      1648
      1648      1650      1651      1648      1650      1652      1648      1650      1653
      1648      1653      1650      1648      1653      1654      1648      1653      1655
      1649      1648      1650      1649      1648      1653      1650      1648      1653
      1650      1653      1654      1650      1653      1655      1651      1650      1652
      1651      1650      1653      1652      1650      1653      1653      1655      1656
      1653      1655      1657      1653      1655      1658      1654      1653      1655
      1655      1658      1659      1655      1658      1660      1655      1658      1661
      1656      1655      1657      1656      1655      1658      1657      1655      1658
      1658      1661      1662      1658      1661      1663      1658      1661      1664
      1659      1658      1660      1659      1658      1661      1660      1658      1661
      1661      1664      1665      1661      1664      1666      1661      1664      1667
      1662      1661      1663      1662      1661      1664      1663      1661      1664
      1664      1667      1668      1664      1667      1669      1664      1667      1670
      1665      1664      1666      1665      1664      1667      1666      1664      1667
      1667      1670      1671      1667      1670      1672      1667      1670      1673
      1668      1667      1669      1668      1667      1670      1669      1667      1670
      1671      1670      1672      1671      1670      1673      1672      1670      1673
      1674      1677      1678      1674      1677      1679      1674      1677      1680
      1675      1674      1676      1675      1674      1677      1676      1674      1677
      1677      1680      1681      1677      1680      1682      1677      1680      1683
      1678      1677      1679      1678      1677      1680      1679      1677      1680
      1680      1683      1684      1680      1683      1685      1680      1683      1686
      1681      1680      1682      1681      1680      1683      1682      1680      1683
      1683      1686      1687      1683      1686      1688      1683      1686      1689
      1684      1683      1685      1684      1683      1686      1685      1683      1686
      1686      1689      1690      1686      1689      1691      1686      1689      1692
      1687      1686      1688      1687      1686      1689      1688      1686      1689
      1689      1692      1693      1689      1692      1694      1689      1692      1695
      1690      1689      1691      1690      1689      1692      1691      1689      1692
      1692      1695      1696      1692      1695      1697      1692      1695      1698
      1693      1692      1694      1693      1692      1695      1694      1692      1695
      1695      1698      1699      1695      1698      1700      1695      1698      1701
      1696      1695      1697      1696      1695      1698      1697      1695      1698
      1698      1701      1702      1698      1701      1703      1698      1701      1704
      1699      1698      1700      1699      1698      1701      1700      1698      1701
      1701      1704      1705      1701      1704      1706      1701      1704      1707
      1702      1701      1703      1702      1701      1704      1703      1701      1704
      1704      1707      1708      1704      1707      1709      1704      1707      1710
      1705      1704      1706      1705      1704      1707      1706      1704      1707
      1707      1710      1711      1707      1710      1712      1707      1710      1713
      1708      1707      1709      1708      1707      1710      1709      1707      1710
      1710      1713      1714      1710      1713      1715      1710      1713      1716
      1711      1710      1712      1711      1710      1713      1712      1710      1713
      1714      1713      1715      1714      1713      1716      1715      1713      1716
      1717      1721      1722      1717      1721      1723      1717      1721      1724
      1718      1717      1719      1718      1717      1720      1718      1717      1721
      1719      1717      1720      1719      1717      1721      1720      1717      1721
      1721      1724      1725      1721      1724      1726      1721      1724      1731
      1722      1721      1723      1722      1721      1724      1723      1721      1724
      1724      1731      1727      1725      1724      1726      1725      1724      1731
      1726      1724      1731      1727      1730      1732      1728      1727      1729
      1728      1727      1730      1728      1727      1731      1729      1727      1730
      1729      1727      1731      1730      1727      1731      1730      1732      1733
      1730      1732      1734      1730      1732      1735      1732      1735      1736
      1732      1735      1737      1732      1735      1743      1733      1732      1734
      1733      1732      1735      1734      1732      1735      1735      1737      1738
      1735      1743      1744      1735      1743      1745      1735      1743      1746
      1736      1735      1737      1736      1735      1743      1737      1735      1743
      1737      1738      1739      1737      1738      1740      1738      1740      1741
      1738      1740      1742      1738      1740      1752      1739      1738      1740
      1740      1752      1753      1740      1752      1754      1740      1752      1755
      1741      1740      1742      1741      1740      1752      1742      1740      1752
      1743      1746      1747      1744      1743      1745      1744      1743      1746
      1745      1743      1746      1746      1747      1748      1746      1747      1749
      1747      1749      1750      1747      1749      1751      1747      1749      1796
      1748      1747      1749      1749      1796      1797      1749      1796      1798
      1749      1796      1799      1750      1749      1751      1750      1749      1796
      1751      1749      1796      1752      1755      1756      1752      1755      1757
      1752      1755      1758      1753      1752      1754      1753      1752      1755
      1754      1752      1755      1755      1758      1759      1755      1758      1760
      1755      1758      1761      1756      1755      1757      1756      1755      1758
      1757      1755      1758      1758      1761      1762      1758      1761      1763
      1758      1761      1764      1759      1758      1760      1759      1758      1761
      1760      1758      1761      1761      1764      1765      1761      1764      1766
      1761      1764      1767      1762      1761      1763      1762      1761      1764
      1763      1761      1764      1764      1767      1768      1764      1767      1769
      1764      1767      1770      1765      1764      1766      1765      1764      1767
      1766      1764      1767      1767      1770      1771      1767      1770      1772
      1767      1770      1775      1768      1767      1769      1768      1767      1770
      1769      1767      1770      1770      1772      1773      1770      1772      1774
      1770      1772      1775      1770      1775      1772      1770      1775      1776
      1770      1775      1777      1771      1770      1772      1771      1770      1775
      1772      1770      1775      1772      1775      1776      1772      1775      1777
      1773      1772      1774      1773      1772      1775      1774      1772      1775
      1775      1777      1778      1775      1777      1779      1775      1777      1780
      1776      1775      1777      1777      1780      1781      1777      1780      1782
      1777      1780      1783      1778      1777      1779      1778      1777      1780
      1779      1777      1780      1780      1783      1784      1780      1783      1785
      1780      1783      1786      1781      1780      1782      1781      1780      1783
      1782      1780      1783      1783      1786      1787      1783      1786      1788
      1783      1786      1789      1784      1783      1785      1784      1783      1786
      1785      1783      1786      1786      1789      1790      1786      1789      1791
      1786      1789      1792      1787      1786      1788      1787      1786      1789
      1788      1786      1789      1789      1792      1793      1789      1792      1794
      1789      1792      1795      1790      1789      1791      1790      1789      1792
      1791      1789      1792      1793      1792      1794      1793      1792      1795
      1794      1792      1795      1796      1799      1800      1796      1799      1801
      1796      1799      1802      1797      1796      1798      1797      1796      1799
      1798      1796      1799      1799      1802      1803      1799      1802      1804
      1799      1802      1805      1800      1799      1801      1800      1799      1802
      1801      1799      1802      1802      1805      1806      1802      1805      1807
      1802      1805      1808      1803      1802      1804      1803      1802      1805
      1804      1802      1805      1805      1808      1809      1805      1808      1810
      1805      1808      1811      1806      1805      1807      1806      1805      1808
      1807      1805      1808      1808      1811      1812      1808      1811      1813
      1808      1811      1814      1809      1808      1810      1809      1808      1811
      1810      1808      1811      1811      1814      1815      1811      1814      1816
      1811      1814      1817      1812      1811      1813      1812      1811      1814
      1813      1811      1814      1814      1817      1818      1814      1817      1819
      1814      1817      1820      1815      1814      1816      1815      1814      1817
      1816      1814      1817      1817      1820      1821      1817      1820      1822
      1817      1820      1823      1818      1817      1819      1818      1817      1820
      1819      1817      1820      1820      1823      1824      1820      1823      1825
      1820      1823      1826      1821      1820      1822      1821      1820      1823
      1822      1820      1823      1823      1826      1827      1823      1826      1828
      1823      1826      1829      1824      1823      1825      1824      1823      1826
      1825      1823      1826      1826      1829      1830      1826      1829      1831
      1826      1829      1832      1827      1826      1828      1827      1826      1829
      1828      1826      1829      1829      1832      1833      1829      1832      1834
      1829      1832      1835      1830      1829      1831      1830      1829      1832
      1831      1829      1832      1832      1835      1836      1832      1835      1837
      1832      1835      1838      1833      1832      1834      1833      1832      1835
      1834      1832      1835      1836      1835      1837      1836      1835      1838
      1837      1835      1838      1839      1843      1844      1839      1843      1845
      1839      1843      1846      1840      1839      1841      1840      1839      1842
      1840      1839      1843      1841      1839      1842      1841      1839      1843
      1842      1839      1843      1843      1846      1847      1843      1846      1848
      1843      1846      1853      1844      1843      1845      1844      1843      1846
      1845      1843      1846      1846      1853      1849      1847      1846      1848
      1847      1846      1853      1848      1846      1853      1849      1852      1854
      1850      1849      1851      1850      1849      1852      1850      1849      1853
      1851      1849      1852      1851      1849      1853      1852      1849      1853
      1852      1854      1855      1852      1854      1856      1852      1854      1857
      1854      1857      1858      1854      1857      1859      1854      1857      1865
      1855      1854      1856      1855      1854      1857      1856      1854      1857
      1857      1859      1860      1857      1865      1866      1857      1865      1867
      1857      1865      1868      1858      1857      1859      1858      1857      1865
      1859      1857      1865      1859      1860      1861      1859      1860      1862
      1860      1862      1863      1860      1862      1864      1860      1862      1874
      1861      1860      1862      1862      1874      1875      1862      1874      1876
      1862      1874      1877      1863      1862      1864      1863      1862      1874
      1864      1862      1874      1865      1868      1869      1866      1865      1867
      1866      1865      1868      1867      1865      1868      1868      1869      1870
      1868      1869      1871      1869      1871      1872      1869      1871      1873
      1869      1871      1918      1870      1869      1871      1871      1918      1919
      1871      1918      1920      1871      1918      1921      1872      1871      1873
      1872      1871      1918      1873      1871      1918      1874      1877      1878
      1874      1877      1879      1874      1877      1880      1875      1874      1876
      1875      1874      1877      1876      1874      1877      1877      1880      1881
      1877      1880      1882      1877      1880      1883      1878      1877      1879
      1878      1877      1880      1879      1877      1880      1880      1883      1884
      1880      1883      1885      1880      1883      1886      1881      1880      1882
      1881      1880      1883      1882      1880      1883      1883      1886      1887
      1883      1886      1888      1883      1886      1889      1884      1883      1885
      1884      1883      1886      1885      1883      1886      1886      1889      1890
      1886      1889      1891      1886      1889      1892      1887      1886      1888
      1887      1886      1889      1888      1886      1889      1889      1892      1893
      1889      1892      1894      1889      1892      1897      1890      1889      1891
      1890      1889      1892      1891      1889      1892      1892      1894      1895
      1892      1894      1896      1892      1894      1897      1892      1897      1894
      1892      1897      1898      1892      1897      1899      1893      1892      1894
      1893      1892      1897      1894      1892      1897      1894      1897      1898
      1894      1897      1899      1895      1894      1896      1895      1894      1897
      1896      1894      1897      1897      1899      1900      1897      1899      1901
      1897      1899      1902      1898      1897      1899      1899      1902      1903
      1899      1902      1904      1899      1902      1905      1900      1899      1901
      1900      1899      1902      1901      1899      1902      1902      1905      1906
      1902      1905      1907      1902      1905      1908      1903      1902      1904
      1903      1902      1905      1904      1902      1905      1905      1908      1909
      1905      1908      1910      1905      1908      1911      1906      1905      1907
      1906      1905      1908      1907      1905      1908      1908      1911      1912
      1908      1911      1913      1908      1911      1914      1909      1908      1910
      1909      1908      1911      1910      1908      1911      1911      1914      1915
      1911      1914      1916      1911      1914      1917      1912      1911      1913
      1912      1911      1914      1913      1911      1914      1915      1914      1916
      1915      1914      1917      1916      1914      1917      1918      1921      1922
      1918      1921      1923      1918      1921      1924      1919      1918      1920
      1919      1918      1921      1920      1918      1921      1921      1924      1925
      1921      1924      1926      1921      1924      1927      1922      1921      1923
      1922      1921      1924      1923      1921      1924      1924      1927      1928
      1924      1927      1929      1924      1927      1930      1925      1924      1926
      1925      1924      1927      1926      1924      1927      1927      1930      1931
      1927      1930      1932      1927      1930      1933      1928      1927      1929
      1928      1927      1930      1929      1927      1930      1930      1933      1934
      1930      1933      1935      1930      1933      1936      1931      1930      1932
      1931      1930      1933      1932      1930      1933      1933      1936      1937
      1933      1936      1938      1933      1936      1939      1934      1933      1935
      1934      1933      1936      1935      1933      1936      1936      1939      1940
      1936      1939      1941      1936      1939      1942      1937      1936      1938
      1937      1936      1939      1938      1936      1939      1939      1942      1943
      1939      1942      1944      1939      1942      1945      1940      1939      1941
      1940      1939      1942      1941      1939      1942      1942      1945      1946
      1942      1945      1947      1942      1945      1948      1943      1942      1944
      1943      1942      1945      1944      1942      1945      1945      1948      1949
      1945      1948      1950      1945      1948      1951      1946      1945      1947
      1946      1945      1948      1947      1945      1948      1948      1951      1952
      1948      1951      1953      1948      1951      1954      1949      1948      1950
      1949      1948      1951      1950      1948      1951      1951      1954      1955
      1951      1954      1956      1951      1954      1957      1952      1951      1953
      1952      1951      1954      1953      1951      1954      1954      1957      1958
      1954      1957      1959      1954      1957      1960      1955      1954      1956
      1955      1954      1957      1956      1954      1957      1958      1957      1959
      1958      1957      1960      1959      1957      1960      1961      1965      1966
      1961      1965      1967      1961      1965      1968      1962      1961      1963
      1962      1961      1964      1962      1961      1965      1963      1961      1964
      1963      1961      1965      1964      1961      1965      1965      1968      1969
      1965      1968      1970      1965      1968      1975      1966      1965      1967
      1966      1965      1968      1967      1965      1968      1968      1975      1971
      1969      1968      1970      1969      1968      1975      1970      1968      1975
      1971      1974      1976      1972      1971      1973      1972      1971      1974
      1972      1971      1975      1973      1971      1974      1973      1971      1975
      1974      1971      1975      1974      1976      1977      1974      1976      1978
      1974      1976      1979      1976      1979      1980      1976      1979      1981
      1976      1979      1987      1977      1976      1978      1977      1976      1979
      1978      1976      1979      1979      1981      1982      1979      1987      1988
      1979      1987      1989      1979      1987      1990      1980      1979      1981
      1980      1979      1987      1981      1979      1987      1981      1982      1983
      1981      1982      1984      1982      1984      1985      1982      1984      1986
      1982      1984      1996      1983      1982      1984      1984      1996      1997
      1984      1996      1998      1984      1996      1999      1985      1984      1986
      1985      1984      1996      1986      1984      1996      1987      1990      1991
      1988      1987      1989      1988      1987      1990      1989      1987      1990
      1990      1991      1992      1990      1991      1993      1991      1993      1994
      1991      1993      1995      1991      1993      2040      1992      1991      1993
      1993      2040      2041      1993      2040      2042      1993      2040      2043
      1994      1993      1995      1994      1993      2040      1995      1993      2040
      1996      1999      2000      1996      1999      2001      1996      1999      2002
      1997      1996      1998      1997      1996      1999      1998      1996      1999
      1999      2002      2003      1999      2002      2004      1999      2002      2005
      2000      1999      2001      2000      1999      2002      2001      1999      2002
      2002      2005      2006      2002      2005      2007      2002      2005      2008
      2003      2002      2004      2003      2002      2005      2004      2002      2005
      2005      2008      2009      2005      2008      2010      2005      2008      2011
      2006      2005      2007      2006      2005      2008      2007      2005      2008
      2008      2011      2012      2008      2011      2013      2008      2011      2014
      2009      2008      2010      2009      2008      2011      2010      2008      2011
      2011      2014      2015      2011      2014      2016      2011      2014      2019
      2012      2011      2013      2012      2011      2014      2013      2011      2014
      2014      2016      2017      2014      2016      2018      2014      2016      2019
      2014      2019      2016      2014      2019      2020      2014      2019      2021
      2015      2014      2016      2015      2014      2019      2016      2014      2019
      2016      2019      2020      2016      2019      2021      2017      2016      2018
      2017      2016      2019      2018      2016      2019      2019      2021      2022
      2019      2021      2023      2019      2021      2024      2020      2019      2021
      2021      2024      2025      2021      2024      2026      2021      2024      2027
      2022      2021      2023      2022      2021      2024      2023      2021      2024
      2024      2027      2028      2024      2027      2029      2024      2027      2030
      2025      2024      2026      2025      2024      2027      2026      2024      2027
      2027      2030      2031      2027      2030      2032      2027      2030      2033
      2028      2027      2029      2028      2027      2030      2029      2027      2030
      2030      2033      2034      2030      2033      2035      2030      2033      2036
      2031      2030      2032      2031      2030      2033      2032      2030      2033
      2033      2036      2037      2033      2036      2038      2033      2036      2039
      2034      2033      2035      2034      2033      2036      2035      2033      2036
      2037      2036      2038      2037      2036      2039      2038      2036      2039
      2040      2043      2044      2040      2043      2045      2040      2043      2046
      2041      2040      2042      2041      2040      2043      2042      2040      2043
      2043      2046      2047      2043      2046      2048      2043      2046      2049
      2044      2043      2045      2044      2043      2046      2045      2043      2046
      2046      2049      2050      2046      2049      2051      2046      2049      2052
      2047      2046      2048      2047      2046      2049      2048      2046      2049
      2049      2052      2053      2049      2052      2054      2049      2052      2055
      2050      2049      2051      2050      2049      2052      2051      2049      2052
      2052      2055      2056      2052      2055      2057      2052      2055      2058
      2053      2052      2054      2053      2052      2055      2054      2052      2055
      2055      2058      2059      2055      2058      2060      2055      2058      2061
      2056      2055      2057      2056      2055      2058      2057      2055      2058
      2058      2061      2062      2058      2061      2063      2058      2061      2064
      2059      2058      2060      2059      2058      2061      2060      2058      2061
      2061      2064      2065      2061      2064      2066      2061      2064      2067
      2062      2061      2063      2062      2061      2064      2063      2061      2064
      2064      2067      2068      2064      2067      2069      2064      2067      2070
      2065      2064      2066      2065      2064      2067      2066      2064      2067
      2067      2070      2071      2067      2070      2072      2067      2070      2073
      2068      2067      2069      2068      2067      2070      2069      2067      2070
      2070      2073      2074      2070      2073      2075      2070      2073      2076
      2071      2070      2072      2071      2070      2073      2072      2070      2073
      2073      2076      2077      2073      2076      2078      2073      2076      2079
      2074      2073      2075      2074      2073      2076      2075      2073      2076
      2076      2079      2080      2076      2079      2081      2076      2079      2082
      2077      2076      2078      2077      2076      2079      2078      2076      2079
      2080      2079      2081      2080      2079      2082      2081      2079      2082
      2083      2086      2087      2083      2088      2089      2083      2088      2090
      2083      2088      2092      2084      2083      2085      2084      2083      2086
      2084      2083      2088      2085      2083      2086      2085      2083      2088
      2086      2083      2088      2088      2090      2091      2088      2092      2093
      2088      2092      2094      2088      2092      2099      2089      2088      2090
      2089      2088      2092      2090      2088      2092      2092      2099      2095
      2093      2092      2094      2093      2092      2099      2094      2092      2099
      2095      2098      2100      2096      2095      2097      2096      2095      2098
      2096      2095      2099      2097      2095      2098      2097      2095      2099
      2098      2095      2099      2098      2100      2101      2098      2100      2102
      2098      2100      2103      2100      2103      2104      2100      2103      2105
      2100      2103      2111      2101      2100      2102      2101      2100      2103
      2102      2100      2103      2103      2105      2106      2103      2111      2112
      2103      2111      2113      2103      2111      2114      2104      2103      2105
      2104      2103      2111      2105      2103      2111      2105      2106      2107
      2105      2106      2108      2106      2108      2109      2106      2108      2110
      2106      2108      2120      2107      2106      2108      2108      2120      2121
      2108      2120      2122      2108      2120      2123      2109      2108      2110
      2109      2108      2120      2110      2108      2120      2111      2114      2115
      2112      2111      2113      2112      2111      2114      2113      2111      2114
      2114      2115      2116      2114      2115      2117      2115      2117      2118
      2115      2117      2119      2115      2117      2161      2116      2115      2117
      2117      2161      2162      2117      2161      2163      2117      2161      2164
      2118      2117      2119      2118      2117      2161      2119      2117      2161
      2120      2123      2124      2120      2123      2125      2120      2123      2126
      2121      2120      2122      2121      2120      2123      2122      2120      2123
      2123      2126      2127      2123      2126      2128      2123      2126      2129
      2124      2123      2125      2124      2123      2126      2125      2123      2126
      2126      2129      2130      2126      2129      2131      2126      2129      2132
      2127      2126      2128      2127      2126      2129      2128      2126      2129
      2129      2132      2133      2129      2132      2134      2129      2132      2135
      2130      2129      2131      2130      2129      2132      2131      2129      2132
      2132      2135      2136      2132      2135      2137      2132      2135      2138
      2133      2132      2134      2133      2132      2135      2134      2132      2135
      2135      2138      2139      2135      2138      2140      2136      2135      2137
      2136      2135      2138      2137      2135      2138      2138      2140      2141
      2138      2140      2142      2139      2138      2140      2140      2142      2143
      2140      2142      2144      2140      2142      2145      2141      2140      2142
      2142      2145      2146      2142      2145      2147      2142      2145      2148
      2143      2142      2144      2143      2142      2145      2144      2142      2145
      2145      2148      2149      2145      2148      2150      2145      2148      2151
      2146      2145      2147      2146      2145      2148      2147      2145      2148
      2148      2151      2152      2148      2151      2153      2148      2151      2154
      2149      2148      2150      2149      2148      2151      2150      2148      2151
      2151      2154      2155      2151      2154      2156      2151      2154      2157
      2152      2151      2153      2152      2151      2154      2153      2151      2154
      2154      2157      2158      2154      2157      2159      2154      2157      2160
      2155      2154      2156      2155      2154      2157      2156      2154      2157
      2158      2157      2159      2158      2157      2160      2159      2157      2160
      2161      2164      2165      2161      2164      2166      2161      2164      2167
      2162      2161      2163      2162      2161      2164      2163      2161      2164
      2164      2167      2168      2164      2167      2169      2164      2167      2170
      2165      2164      2166      2165      2164      2167      2166      2164      2167
      2167      2170      2171      2167      2170      2172      2167      2170      2173
      2168      2167      2169      2168      2167      2170      2169      2167      2170
      2170      2173      2174      2170      2173      2175      2170      2173      2176
      2171      2170      2172      2171      2170      2173      2172      2170      2173
      2173      2176      2177      2173      2176      2178      2173      2176      2179
      2174      2173      2175      2174      2173      2176      2175      2173      2176
      2176      2179      2180      2176      2179      2181      2176      2179      2182
      2177      2176      2178      2177      2176      2179      2178      2176      2179
      2179      2182      2183      2179      2182      2184      2179      2182      2185
      2180      2179      2181      2180      2179      2182      2181      2179      2182
      2182      2185      2186      2182      2185      2187      2182      2185      2188
      2183      2182      2184      2183      2182      2185      2184      2182      2185
      2185      2188      2189      2185      2188      2190      2185      2188      2191
      2186      2185      2187      2186      2185      2188      2187      2185      2188
      2188      2191      2192      2188      2191      2193      2188      2191      2194
      2189      2188      2190      2189      2188      2191      2190      2188      2191
      2191      2194      2195      2191      2194      2196      2191      2194      2197
      2192      2191      2193      2192      2191      2194      2193      2191      2194
      2194      2197      2198      2194      2197      2199      2194      2197      2200
      2195      2194      2196      2195      2194      2197      2196      2194      2197
      2197      2200      2201      2197      2200      2202      2197      2200      2203
      2198      2197      2199      2198      2197      2200      2199      2197      2200
      2201      2200      2202      2201      2200      2203      2202      2200      2203
      2204      2208      2209      2204      2208      2210      2204      2208      2211
      2205      2204      2206      2205      2204      2207      2205      2204      2208
      2206      2204      2207      2206      2204      2208      2207      2204      2208
      2208      2211      2212      2208      2211      2213      2208      2211      2218
      2209      2208      2210      2209      2208      2211      2210      2208      2211
      2211      2218      2214      2212      2211      2213      2212      2211      2218
      2213      2211      2218      2214      2217      2219      2215      2214      2216
      2215      2214      2217      2215      2214      2218      2216      2214      2217
      2216      2214      2218      2217      2214      2218      2217      2219      2220
      2217      2219      2221      2217      2219      2222      2219      2222      2223
      2219      2222      2224      2219      2222      2230      2220      2219      2221
      2220      2219      2222      2221      2219      2222      2222      2224      2225
      2222      2230      2231      2222      2230      2232      2222      2230      2233
      2223      2222      2224      2223      2222      2230      2224      2222      2230
      2224      2225      2226      2224      2225      2227      2225      2227      2228
      2225      2227      2229      2225      2227      2239      2226      2225      2227
      2227      2239      2240      2227      2239      2241      2227      2239      2242
      2228      2227      2229      2228      2227      2239      2229      2227      2239
      2230      2233      2234      2231      2230      2232      2231      2230      2233
      2232      2230      2233      2233      2234      2235      2233      2234      2236
      2234      2236      2237      2234      2236      2238      2234      2236      2283
      2235      2234      2236      2236      2283      2284      2236      2283      2285
      2236      2283      2286      2237      2236      2238      2237      2236      2283
      2238      2236      2283      2239      2242      2243      2239      2242      2244
      2239      2242      2245      2240      2239      2241      2240      2239      2242
      2241      2239      2242      2242      2245      2246      2242      2245      2247
      2242      2245      2248      2243      2242      2244      2243      2242      2245
      2244      2242      2245      2245      2248      2249      2245      2248      2250
      2245      2248      2251      2246      2245      2247      2246      2245      2248
      2247      2245      2248      2248      2251      2252      2248      2251      2253
      2248      2251      2254      2249      2248      2250      2249      2248      2251
      2250      2248      2251      2251      2254      2255      2251      2254      2256
      2251      2254      2257      2252      2251      2253      2252      2251      2254
      2253      2251      2254      2254      2257      2258      2254      2257      2259
      2254      2257      2262      2255      2254      2256      2255      2254      2257
      2256      2254      2257      2257      2259      2260      2257      2259      2261
      2257      2259      2262      2257      2262      2259      2257      2262      2263
      2257      2262      2264      2258      2257      2259      2258      2257      2262
      2259      2257      2262      2259      2262      2263      2259      2262      2264
      2260      2259      2261      2260      2259      2262      2261      2259      2262
      2262      2264      2265      2262      2264      2266      2262      2264      2267
      2263      2262      2264      2264      2267      2268      2264      2267      2269
      2264      2267      2270      2265      2264      2266      2265      2264      2267
      2266      2264      2267      2267      2270      2271      2267      2270      2272
      2267      2270      2273      2268      2267      2269      2268      2267      2270
      2269      2267      2270      2270      2273      2274      2270      2273      2275
      2270      2273      2276      2271      2270      2272      2271      2270      2273
      2272      2270      2273      2273      2276      2277      2273      2276      2278
      2273      2276      2279      2274      2273      2275      2274      2273      2276
      2275      2273      2276      2276      2279      2280      2276      2279      2281
      2276      2279      2282      2277      2276      2278      2277      2276      2279
      2278      2276      2279      2280      2279      2281      2280      2279      2282
      2281      2279      2282      2283      2286      2287      2283      2286      2288
      2283      2286      2289      2284      2283      2285      2284      2283      2286
      2285      2283      2286      2286      2289      2290      2286      2289      2291
      2286      2289      2292      2287      2286      2288      2287      2286      2289
      2288      2286      2289      2289      2292      2293      2289      2292      2294
      2289      2292      2295      2290      2289      2291      2290      2289      2292
      2291      2289      2292      2292      2295      2296      2292      2295      2297
      2292      2295      2298      2293      2292      2294      2293      2292      2295
      2294      2292      2295      2295      2298      2299      2295      2298      2300
      2295      2298      2301      2296      2295      2297      2296      2295      2298
      2297      2295      2298      2298      2301      2302      2298      2301      2303
      2298      2301      2304      2299      2298      2300      2299      2298      2301
      2300      2298      2301      2301      2304      2305      2301      2304      2306
      2301      2304      2307      2302      2301      2303      2302      2301      2304
      2303      2301      2304      2304      2307      2308      2304      2307      2309
      2304      2307      2310      2305      2304      2306      2305      2304      2307
      2306      2304      2307      2307      2310      2311      2307      2310      2312
      2307      2310      2313      2308      2307      2309      2308      2307      2310
      2309      2307      2310      2310      2313      2314      2310      2313      2315
      2310      2313      2316      2311      2310      2312      2311      2310      2313
      2312      2310      2313      2313      2316      2317      2313      2316      2318
      2313      2316      2319      2314      2313      2315      2314      2313      2316
      2315      2313      2316      2316      2319      2320      2316      2319      2321
      2316      2319      2322      2317      2316      2318      2317      2316      2319
      2318      2316      2319      2319      2322      2323      2319      2322      2324
      2319      2322      2325      2320      2319      2321      2320      2319      2322
      2321      2319      2322      2323      2322      2324      2323      2322      2325
      2324      2322      2325      2326      2330      2331      2326      2330      2332
      2326      2330      2333      2327      2326      2328      2327      2326      2329
      2327      2326      2330      2328      2326      2329      2328      2326      2330
      2329      2326      2330      2330      2333      2334      2330      2333      2335
      2330      2333      2340      2331      2330      2332      2331      2330      2333
      2332      2330      2333      2333      2340      2336      2334      2333      2335
      2334      2333      2340      2335      2333      2340      2336      2339      2341
      2337      2336      2338      2337      2336      2339      2337      2336      2340
      2338      2336      2339      2338      2336      2340      2339      2336      2340
      2339      2341      2342      2339      2341      2343      2339      2341      2344
      2341      2344      2345      2341      2344      2346      2341      2344      2352
      2342      2341      2343      2342      2341      2344      2343      2341      2344
      2344      2346      2347      2344      2352      2353      2344      2352      2354
      2344      2352      2355      2345      2344      2346      2345      2344      2352
      2346      2344      2352      2346      2347      2348      2346      2347      2349
      2347      2349      2350      2347      2349      2351      2347      2349      2361
      2348      2347      2349      2349      2361      2362      2349      2361      2363
      2349      2361      2364      2350      2349      2351      2350      2349      2361
      2351      2349      2361      2352      2355      2356      2353      2352      2354
      2353      2352      2355      2354      2352      2355      2355      2356      2357
      2355      2356      2358      2356      2358      2359      2356      2358      2360
      2356      2358      2408      2357      2356      2358      2358      2408      2409
      2358      2408      2410      2358      2408      2411      2359      2358      2360
      2359      2358      2408      2360      2358      2408      2361      2364      2365
      2361      2364      2366      2361      2364      2367      2362      2361      2363
      2362      2361      2364      2363      2361      2364      2364      2367      2368
      2364      2367      2369      2364      2367      2370      2365      2364      2366
      2365      2364      2367      2366      2364      2367      2367      2370      2371
      2367      2370      2372      2367      2370      2373      2368      2367      2369
      2368      2367      2370      2369      2367      2370      2370      2373      2374
      2370      2373      2375      2370      2373      2376      2371      2370      2372
      2371      2370      2373      2372      2370      2373      2373      2376      2377
      2373      2376      2378      2373      2376      2379      2374      2373      2375
      2374      2373      2376      2375      2373      2376      2376      2379      2380
      2376      2379      2381      2377      2376      2378      2377      2376      2379
      2378      2376      2379      2379      2381      2382      2379      2381      2383
      2380      2379      2381      2381      2383      2384      2381      2383      2385
      2381      2383      2386      2382      2381      2383      2383      2386      2387
      2383      2386      2388      2383      2386      2389      2384      2383      2385
      2384      2383      2386      2385      2383      2386      2386      2389      2390
      2386      2389      2391      2386      2389      2392      2387      2386      2388
      2387      2386      2389      2388      2386      2389      2389      2392      2393
      2389      2392      2394      2389      2392      2395      2390      2389      2391
      2390      2389      2392      2391      2389      2392      2392      2395      2396
      2392      2395      2397      2392      2395      2398      2393      2392      2394
      2393      2392      2395      2394      2392      2395      2395      2398      2399
      2395      2398      2400      2395      2398      2401      2396      2395      2397
      2396      2395      2398      2397      2395      2398      2398      2401      2402
      2398      2401      2403      2398      2401      2404      2399      2398      2400
      2399      2398      2401      2400      2398      2401      2401      2404      2405
      2401      2404      2406      2401      2404      2407      2402      2401      2403
      2402      2401      2404      2403      2401      2404      2405      2404      2406
      2405      2404      2407      2406      2404      2407      2408      2411      2412
      2408      2411      2413      2408      2411      2414      2409      2408      2410
      2409      2408      2411      2410      2408      2411      2411      2414      2415
      2411      2414      2416      2411      2414      2417      2412      2411      2413
      2412      2411      2414      2413      2411      2414      2414      2417      2418
      2414      2417      2419      2414      2417      2420      2415      2414      2416
      2415      2414      2417      2416      2414      2417      2417      2420      2421
      2417      2420      2422      2417      2420      2423      2418      2417      2419
      2418      2417      2420      2419      2417      2420      2420      2423      2424
      2420      2423      2425      2420      2423      2426      2421      2420      2422
      2421      2420      2423      2422      2420      2423      2423      2426      2427
      2423      2426      2428      2423      2426      2429      2424      2423      2425
      2424      2423      2426      2425      2423      2426      2426      2429      2430
      2426      2429      2431      2426      2429      2432      2427      2426      2428
      2427      2426      2429      2428      2426      2429      2429      2432      2433
      2429      2432      2434      2429      2432      2435      2430      2429      2431
      2430      2429      2432      2431      2429      2432      2432      2435      2436
      2432      2435      2437      2432      2435      2438      2433      2432      2434
      2433      2432      2435      2434      2432      2435      2435      2438      2439
      2435      2438      2440      2435      2438      2441      2436      2435      2437
      2436      2435      2438      2437      2435      2438      2438      2441      2442
      2438      2441      2443      2438      2441      2444      2439      2438      2440
      2439      2438      2441      2440      2438      2441      2441      2444      2445
      2441      2444      2446      2441      2444      2447      2442      2441      2443
      2442      2441      2444      2443      2441      2444      2444      2447      2448
      2444      2447      2449      2444      2447      2450      2445      2444      2446
      2445      2444      2447      2446      2444      2447      2448      2447      2449
      2448      2447      2450      2449      2447      2450      2451      2455      2456
      2451      2455      2457      2451      2455      2458      2452      2451      2453
      2452      2451      2454      2452      2451      2455      2453      2451      2454
      2453      2451      2455      2454      2451      2455      2455      2458      2459
      2455      2458      2460      2455      2458      2465      2456      2455      2457
      2456      2455      2458      2457      2455      2458      2458      2465      2461
      2459      2458      2460      2459      2458      2465      2460      2458      2465
      2461      2464      2466      2462      2461      2463      2462      2461      2464
      2462      2461      2465      2463      2461      2464      2463      2461      2465
      2464      2461      2465      2464      2466      2467      2464      2466      2468
      2464      2466      2469      2466      2469      2470      2466      2469      2471
      2466      2469      2477      2467      2466      2468      2467      2466      2469
      2468      2466      2469      2469      2471      2472      2469      2477      2478
      2469      2477      2479      2469      2477      2480      2470      2469      2471
      2470      2469      2477      2471      2469      2477      2471      2472      2473
      2471      2472      2474      2472      2474      2475      2472      2474      2476
      2472      2474      2486      2473      2472      2474      2474      2486      2487
      2474      2486      2488      2474      2486      2489      2475      2474      2476
      2475      2474      2486      2476      2474      2486      2477      2480      2481
      2478      2477      2479      2478      2477      2480      2479      2477      2480
      2480      2481      2482      2480      2481      2483      2481      2483      2484
      2481      2483      2485      2481      2483      2530      2482      2481      2483
      2483      2530      2531      2483      2530      2532      2483      2530      2533
      2484      2483      2485      2484      2483      2530      2485      2483      2530
      2486      2489      2490      2486      2489      2491      2486      2489      2492
      2487      2486      2488      2487      2486      2489      2488      2486      2489
      2489      2492      2493      2489      2492      2494      2489      2492      2495
      2490      2489      2491      2490      2489      2492      2491      2489      2492
      2492      2495      2496      2492      2495      2497      2492      2495      2498
      2493      2492      2494      2493      2492      2495      2494      2492      2495
      2495      2498      2499      2495      2498      2500      2495      2498      2501
      2496      2495      2497      2496      2495      2498      2497      2495      2498
      2498      2501      2502      2498      2501      2503      2498      2501      2504
      2499      2498      2500      2499      2498      2501      2500      2498      2501
      2501      2504      2505      2501      2504      2506      2501      2504      2509
      2502      2501      2503      2502      2501      2504      2503      2501      2504
      2504      2506      2507      2504      2506      2508      2504      2506      2509
      2504      2509      2506      2504      2509      2510      2504      2509      2511
      2505      2504      2506      2505      2504      2509      2506      2504      2509
      2506      2509      2510      2506      2509      2511      2507      2506      2508
      2507      2506      2509      2508      2506      2509      2509      2511      2512
      2509      2511      2513      2509      2511      2514      2510      2509      2511
      2511      2514      2515      2511      2514      2516      2511      2514      2517
      2512      2511      2513      2512      2511      2514      2513      2511      2514
      2514      2517      2518      2514      2517      2519      2514      2517      2520
      2515      2514      2516      2515      2514      2517      2516      2514      2517
      2517      2520      2521      2517      2520      2522      2517      2520      2523
      2518      2517      2519      2518      2517      2520      2519      2517      2520
      2520      2523      2524      2520      2523      2525      2520      2523      2526
      2521      2520      2522      2521      2520      2523      2522      2520      2523
      2523      2526      2527      2523      2526      2528      2523      2526      2529
      2524      2523      2525      2524      2523      2526      2525      2523      2526
      2527      2526      2528      2527      2526      2529      2528      2526      2529
      2530      2533      2534      2530      2533      2535      2530      2533      2536
      2531      2530      2532      2531      2530      2533      2532      2530      2533
      2533      2536      2537      2533      2536      2538      2533      2536      2539
      2534      2533      2535      2534      2533      2536      2535      2533      2536
      2536      2539      2540      2536      2539      2541      2536      2539      2542
      2537      2536      2538      2537      2536      2539      2538      2536      2539
      2539      2542      2543      2539      2542      2544      2539      2542      2545
      2540      2539      2541      2540      2539      2542      2541      2539      2542
      2542      2545      2546      2542      2545      2547      2542      2545      2548
      2543      2542      2544      2543      2542      2545      2544      2542      2545
      2545      2548      2549      2545      2548      2550      2545      2548      2551
      2546      2545      2547      2546      2545      2548      2547      2545      2548
      2548      2551      2552      2548      2551      2553      2548      2551      2554
      2549      2548      2550      2549      2548      2551      2550      2548      2551
      2551      2554      2555      2551      2554      2556      2551      2554      2557
      2552      2551      2553      2552      2551      2554      2553      2551      2554
      2554      2557      2558      2554      2557      2559      2554      2557      2560
      2555      2554      2556      2555      2554      2557      2556      2554      2557
      2557      2560      2561      2557      2560      2562      2557      2560      2563
      2558      2557      2559      2558      2557      2560      2559      2557      2560
      2560      2563      2564      2560      2563      2565      2560      2563      2566
      2561      2560      2562      2561      2560      2563      2562      2560      2563
      2563      2566      2567      2563      2566      2568      2563      2566      2569
      2564      2563      2565      2564      2563      2566      2565      2563      2566
      2566      2569      2570      2566      2569      2571      2566      2569      2572
      2567      2566      2568      2567      2566      2569      2568      2566      2569
      2570      2569      2571      2570      2569      2572      2571      2569      2572
      2573      2577      2578      2573      2577      2579      2573      2577      2580
      2574      2573      2575      2574      2573      2576      2574      2573      2577
      2575      2573      2576      2575      2573      2577      2576      2573      2577
      2577      2580      2581      2577      2580      2582      2577      2580      2587
      2578      2577      2579      2578      2577      2580      2579      2577      2580
      2580      2587      2583      2581      2580      2582      2581      2580      2587
      2582      2580      2587      2583      2586      2588      2584      2583      2585
      2584      2583      2586      2584      2583      2587      2585      2583      2586
      2585      2583      2587      2586      2583      2587      2586      2588      2589
      2586      2588      2590      2586      2588      2591      2588      2591      2592
      2588      2591      2593      2588      2591      2599      2589      2588      2590
      2589      2588      2591      2590      2588      2591      2591      2593      2594
      2591      2599      2600      2591      2599      2601      2591      2599      2602
      2592      2591      2593      2592      2591      2599      2593      2591      2599
      2593      2594      2595      2593      2594      2596      2594      2596      2597
      2594      2596      2598      2594      2596      2608      2595      2594      2596
      2596      2608      2609      2596      2608      2610      2596      2608      2611
      2597      2596      2598      2597      2596      2608      2598      2596      2608
      2599      2602      2603      2600      2599      2601      2600      2599      2602
      2601      2599      2602      2602      2603      2604      2602      2603      2605
      2603      2605      2606      2603      2605      2607      2603      2605      2652
      2604      2603      2605      2605      2652      2653      2605      2652      2654
      2605      2652      2655      2606      2605      2607      2606      2605      2652
      2607      2605      2652      2608      2611      2612      2608      2611      2613
      2608      2611      2614      2609      2608      2610      2609      2608      2611
      2610      2608      2611      2611      2614      2615      2611      2614      2616
      2611      2614      2617      2612      2611      2613      2612      2611      2614
      2613      2611      2614      2614      2617      2618      2614      2617      2619
      2614      2617      2620      2615      2614      2616      2615      2614      2617
      2616      2614      2617      2617      2620      2621      2617      2620      2622
      2617      2620      2623      2618      2617      2619      2618      2617      2620
      2619      2617      2620      2620      2623      2624      2620      2623      2625
      2620      2623      2626      2621      2620      2622      2621      2620      2623
      2622      2620      2623      2623      2626      2627      2623      2626      2628
      2623      2626      2631      2624      2623      2625      2624      2623      2626
      2625      2623      2626      2626      2628      2629      2626      2628      2630
      2626      2628      2631      2626      2631      2628      2626      2631      2632
      2626      2631      2633      2627      2626      2628      2627      2626      2631
      2628      2626      2631      2628      2631      2632      2628      2631      2633
      2629      2628      2630      2629      2628      2631      2630      2628      2631
      2631      2633      2634      2631      2633      2635      2631      2633      2636
      2632      2631      2633      2633      2636      2637      2633      2636      2638
      2633      2636      2639      2634      2633      2635      2634      2633      2636
      2635      2633      2636      2636      2639      2640      2636      2639      2641
      2636      2639      2642      2637      2636      2638      2637      2636      2639
      2638      2636      2639      2639      2642      2643      2639      2642      2644
      2639      2642      2645      2640      2639      2641      2640      2639      2642
      2641      2639      2642      2642      2645      2646      2642      2645      2647
      2642      2645      2648      2643      2642      2644      2643      2642      2645
      2644      2642      2645      2645      2648      2649      2645      2648      2650
      2645      2648      2651      2646      2645      2647      2646      2645      2648
      2647      2645      2648      2649      2648      2650      2649      2648      2651
      2650      2648      2651      2652      2655      2656      2652      2655      2657
      2652      2655      2658      2653      2652      2654      2653      2652      2655
      2654      2652      2655      2655      2658      2659      2655      2658      2660
      2655      2658      2661      2656      2655      2657      2656      2655      2658
      2657      2655      2658      2658      2661      2662      2658      2661      2663
      2658      2661      2664      2659      2658      2660      2659      2658      2661
      2660      2658      2661      2661      2664      2665      2661      2664      2666
      2661      2664      2667      2662      2661      2663      2662      2661      2664
      2663      2661      2664      2664      2667      2668      2664      2667      2669
      2664      2667      2670      2665      2664      2666      2665      2664      2667
      2666      2664      2667      2667      2670      2671      2667      2670      2672
      2667      2670      2673      2668      2667      2669      2668      2667      2670
      2669      2667      2670      2670      2673      2674      2670      2673      2675
      2670      2673      2676      2671      2670      2672      2671      2670      2673
      2672      2670      2673      2673      2676      2677      2673      2676      2678
      2673      2676      2679      2674      2673      2675      2674      2673      2676
      2675      2673      2676      2676      2679      2680      2676      2679      2681
      2676      2679      2682      2677      2676      2678      2677      2676      2679
      2678      2676      2679      2679      2682      2683      2679      2682      2684
      2679      2682      2685      2680      2679      2681      2680      2679      2682
      2681      2679      2682      2682      2685      2686      2682      2685      2687
      2682      2685      2688      2683      2682      2684      2683      2682      2685
      2684      2682      2685      2685      2688      2689      2685      2688      2690
      2685      2688      2691      2686      2685      2687      2686      2685      2688
      2687      2685      2688      2689      2688      2690      2689      2688      2691
      2690      2688      2691      2692      2696      2697      2692      2696      2698
      2692      2696      2699      2693      2692      2694      2693      2692      2695
      2693      2692      2696      2694      2692      2695      2694      2692      2696
      2695      2692      2696      2696      2699      2700      2696      2699      2701
      2696      2699      2706      2697      2696      2698      2697      2696      2699
      2698      2696      2699      2699      2706      2702      2700      2699      2701
      2700      2699      2706      2701      2699      2706      2702      2705      2707
      2703      2702      2704      2703      2702      2705      2703      2702      2706
      2704      2702      2705      2704      2702      2706      2705      2702      2706
      2705      2707      2708      2705      2707      2709      2705      2707      2710
      2707      2710      2711      2707      2710      2712      2707      2710      2718
      2708      2707      2709      2708      2707      2710      2709      2707      2710
      2710      2712      2713      2710      2718      2719      2710      2718      2720
      2710      2718      2721      2711      2710      2712      2711      2710      2718
      2712      2710      2718      2712      2713      2714      2712      2713      2715
      2713      2715      2716      2713      2715      2717      2713      2715      2727
      2714      2713      2715      2715      2727      2728      2715      2727      2729
      2715      2727      2730      2716      2715      2717      2716      2715      2727
      2717      2715      2727      2718      2721      2722      2719      2718      2720
      2719      2718      2721      2720      2718      2721      2721      2722      2723
      2721      2722      2724      2722      2724      2725      2722      2724      2726
      2722      2724      2771      2723      2722      2724      2724      2771      2772
      2724      2771      2773      2724      2771      2774      2725      2724      2726
      2725      2724      2771      2726      2724      2771      2727      2730      2731
      2727      2730      2732      2727      2730      2733      2728      2727      2729
      2728      2727      2730      2729      2727      2730      2730      2733      2734
      2730      2733      2735      2730      2733      2736      2731      2730      2732
      2731      2730      2733      2732      2730      2733      2733      2736      2737
      2733      2736      2738      2733      2736      2739      2734      2733      2735
      2734      2733      2736      2735      2733      2736      2736      2739      2740
      2736      2739      2741      2736      2739      2742      2737      2736      2738
      2737      2736      2739      2738      2736      2739      2739      2742      2743
      2739      2742      2744      2739      2742      2745      2740      2739      2741
      2740      2739      2742      2741      2739      2742      2742      2745      2746
      2742      2745      2747      2742      2745      2750      2743      2742      2744
      2743      2742      2745      2744      2742      2745      2745      2747      2748
      2745      2747      2749      2745      2747      2750      2745      2750      2747
      2745      2750      2751      2745      2750      2752      2746      2745      2747
      2746      2745      2750      2747      2745      2750      2747      2750      2751
      2747      2750      2752      2748      2747      2749      2748      2747      2750
      2749      2747      2750      2750      2752      2753      2750      2752      2754
      2750      2752      2755      2751      2750      2752      2752      2755      2756
      2752      2755      2757      2752      2755      2758      2753      2752      2754
      2753      2752      2755      2754      2752      2755      2755      2758      2759
      2755      2758      2760      2755      2758      2761      2756      2755      2757
      2756      2755      2758      2757      2755      2758      2758      2761      2762
      2758      2761      2763      2758      2761      2764      2759      2758      2760
      2759      2758      2761      2760      2758      2761      2761      2764      2765
      2761      2764      2766      2761      2764      2767      2762      2761      2763
      2762      2761      2764      2763      2761      2764      2764      2767      2768
      2764      2767      2769      2764      2767      2770      2765      2764      2766
      2765      2764      2767      2766      2764      2767      2768      2767      2769
      2768      2767      2770      2769      2767      2770      2771      2774      2775
      2771      2774      2776      2771      2774      2777      2772      2771      2773
      2772      2771      2774      2773      2771      2774      2774      2777      2778
      2774      2777      2779      2774      2777      2780      2775      2774      2776
      2775      2774      2777      2776      2774      2777      2777      2780      2781
      2777      2780      2782      2777      2780      2783      2778      2777      2779
      2778      2777      2780      2779      2777      2780      2780      2783      2784
      2780      2783      2785      2780      2783      2786      2781      2780      2782
      2781      2780      2783      2782      2780      2783      2783      2786      2787
      2783      2786      2788      2783      2786      2789      2784      2783      2785
      2784      2783      2786      2785      2783      2786      2786      2789      2790
      2786      2789      2791      2786      2789      2792      2787      2786      2788
      2787      2786      2789      2788      2786      2789      2789      2792      2793
      2789      2792      2794      2789      2792      2795      2790      2789      2791
      2790      2789      2792      2791      2789      2792      2792      2795      2796
      2792      2795      2797      2792      2795      2798      2793      2792      2794
      2793      2792      2795      2794      2792      2795      2795      2798      2799
      2795      2798      2800      2795      2798      2801      2796      2795      2797
      2796      2795      2798      2797      2795      2798      2798      2801      2802
      2798      2801      2803      2798      2801      2804      2799      2798      2800
      2799      2798      2801      2800      2798      2801      2801      2804      2805
      2801      2804      2806      2801      2804      2807      2802      2801      2803
      2802      2801      2804      2803      2801      2804      2804      2807      2808
      2804      2807      2809      2804      2807      2810      2805      2804      2806
      2805      2804      2807      2806      2804      2807      2808      2807      2809
      2808      2807      2810      2809      2807      2810      2811      2814      2815
      2811      2816      2817      2811      2816      2818      2811      2816      2820
      2812      2811      2813      2812      2811      2814      2812      2811      2816
      2813      2811      2814      2813      2811      2816      2814      2811      2816
      2816      2818      2819      2816      2820      2821      2816      2820      2822
      2816      2820      2827      2817      2816      2818      2817      2816      2820
      2818      2816      2820      2820      2827      2823      2821      2820      2822
      2821      2820      2827      2822      2820      2827      2823      2826      2828
      2824      2823      2825      2824      2823      2826      2824      2823      2827
      2825      2823      2826      2825      2823      2827      2826      2823      2827
      2826      2828      2829      2826      2828      2830      2826      2828      2831
      2828      2831      2832      2828      2831      2833      2828      2831      2839
      2829      2828      2830      2829      2828      2831      2830      2828      2831
      2831      2833      2834      2831      2839      2840      2831      2839      2841
      2831      2839      2842      2832      2831      2833      2832      2831      2839
      2833      2831      2839      2833      2834      2835      2833      2834      2836
      2834      2836      2837      2834      2836      2838      2834      2836      2848
      2835      2834      2836      2836      2848      2849      2836      2848      2850
      2836      2848      2851      2837      2836      2838      2837      2836      2848
      2838      2836      2848      2839      2842      2843      2840      2839      2841
      2840      2839      2842      2841      2839      2842      2842      2843      2844
      2842      2843      2845      2843      2845      2846      2843      2845      2847
      2843      2845      2889      2844      2843      2845      2845      2889      2890
      2845      2889      2891      2845      2889      2892      2846      2845      2847
      2846      2845      2889      2847      2845      2889      2848      2851      2852
      2848      2851      2853      2848      2851      2854      2849      2848      2850
      2849      2848      2851      2850      2848      2851      2851      2854      2855
      2851      2854      2856      2851      2854      2857      2852      2851      2853
      2852      2851      2854      2853      2851      2854      2854      2857      2858
      2854      2857      2859      2854      2857      2860      2855      2854      2856
      2855      2854      2857      2856      2854      2857      2857      2860      2861
      2857      2860      2862      2857      2860      2863      2858      2857      2859
      2858      2857      2860      2859      2857      2860      2860      2863      2864
      2860      2863      2865      2860      2863      2866      2861      2860      2862
      2861      2860      2863      2862      2860      2863      2863      2866      2867
      2863      2866      2868      2864      2863      2865      2864      2863      2866
      2865      2863      2866      2866      2868      2869      2866      2868      2870
      2867      2866      2868      2868      2870      2871      2868      2870      2872
      2868      2870      2873      2869      2868      2870      2870      2873      2874
      2870      2873      2875      2870      2873      2876      2871      2870      2872
      2871      2870      2873      2872      2870      2873      2873      2876      2877
      2873      2876      2878      2873      2876      2879      2874      2873      2875
      2874      2873      2876      2875      2873      2876      2876      2879      2880
      2876      2879      2881      2876      2879      2882      2877      2876      2878
      2877      2876      2879      2878      2876      2879      2879      2882      2883
      2879      2882      2884      2879      2882      2885      2880      2879      2881
      2880      2879      2882      2881      2879      2882      2882      2885      2886
      2882      2885      2887      2882      2885      2888      2883      2882      2884
      2883      2882      2885      2884      2882      2885      2886      2885      2887
      2886      2885      2888      2887      2885      2888      2889      2892      2893
      2889      2892      2894      2889      2892      2895      2890      2889      2891
      2890      2889      2892      2891      2889      2892      2892      2895      2896
      2892      2895      2897      2892      2895      2898      2893      2892      2894
      2893      2892      2895      2894      2892      2895      2895      2898      2899
      2895      2898      2900      2895      2898      2901      2896      2895      2897
      2896      2895      2898      2897      2895      2898      2898      2901      2902
      2898      2901      2903      2898      2901      2904      2899      2898      2900
      2899      2898      2901      2900      2898      2901      2901      2904      2905
      2901      2904      2906      2901      2904      2907      2902      2901      2903
      2902      2901      2904      2903      2901      2904      2904      2907      2908
      2904      2907      2909      2904      2907      2910      2905      2904      2906
      2905      2904      2907      2906      2904      2907      2907      2910      2911
      2907      2910      2912      2907      2910      2913      2908      2907      2909
      2908      2907      2910      2909      2907      2910      2910      2913      2914
      2910      2913      2915      2910      2913      2916      2911      2910      2912
      2911      2910      2913      2912      2910      2913      2913      2916      2917
      2913      2916      2918      2913      2916      2919      2914      2913      2915
      2914      2913      2916      2915      2913      2916      2916      2919      2920
      2916      2919      2921      2916      2919      2922      2917      2916      2918
      2917      2916      2919      2918      2916      2919      2919      2922      2923
      2919      2922      2924      2919      2922      2925      2920      2919      2921
      2920      2919      2922      2921      2919      2922      2922      2925      2926
      2922      2925      2927      2922      2925      2928      2923      2922      2924
      2923      2922      2925      2924      2922      2925      2925      2928      2929
      2925      2928      2930      2925      2928      2931      2926      2925      2927
      2926      2925      2928      2927      2925      2928      2929      2928      2930
      2929      2928      2931      2930      2928      2931      2932      2936      2937
      2932      2936      2938      2932      2936      2939      2933      2932      2934
      2933      2932      2935      2933      2932      2936      2934      2932      2935
      2934      2932      2936      2935      2932      2936      2936      2939      2940
      2936      2939      2941      2936      2939      2946      2937      2936      2938
      2937      2936      2939      2938      2936      2939      2939      2946      2942
      2940      2939      2941      2940      2939      2946      2941      2939      2946
      2942      2945      2947      2943      2942      2944      2943      2942      2945
      2943      2942      2946      2944      2942      2945      2944      2942      2946
      2945      2942      2946      2945      2947      2948      2945      2947      2949
      2945      2947      2950      2947      2950      2951      2947      2950      2952
      2947      2950      2958      2948      2947      2949      2948      2947      2950
      2949      2947      2950      2950      2952      2953      2950      2958      2959
      2950      2958      2960      2950      2958      2961      2951      2950      2952
      2951      2950      2958      2952      2950      2958      2952      2953      2954
      2952      2953      2955      2953      2955      2956      2953      2955      2957
      2953      2955      2967      2954      2953      2955      2955      2967      2968
      2955      2967      2969      2955      2967      2970      2956      2955      2957
      2956      2955      2967      2957      2955      2967      2958      2961      2962
      2959      2958      2960      2959      2958      2961      2960      2958      2961
      2961      2962      2963      2961      2962      2964      2962      2964      2965
      2962      2964      2966      2962      2964      3011      2963      2962      2964
      2964      3011      3012      2964      3011      3013      2964      3011      3014
      2965      2964      2966      2965      2964      3011      2966      2964      3011
      2967      2970      2971      2967      2970      2972      2967      2970      2973
      2968      2967      2969      2968      2967      2970      2969      2967      2970
      2970      2973      2974      2970      2973      2975      2970      2973      2976
      2971      2970      2972      2971      2970      2973      2972      2970      2973
      2973      2976      2977      2973      2976      2978      2973      2976      2979
      2974      2973      2975      2974      2973      2976      2975      2973      2976
      2976      2979      2980      2976      2979      2981      2976      2979      2982
      2977      2976      2978      2977      2976      2979      2978      2976      2979
      2979      2982      2983      2979      2982      2984      2979      2982      2985
      2980      2979      2981      2980      2979      2982      2981      2979      2982
      2982      2985      2986      2982      2985      2987      2982      2985      2990
      2983      2982      2984      2983      2982      2985      2984      2982      2985
      2985      2987      2988      2985      2987      2989      2985      2987      2990
      2985      2990      2987      2985      2990      2991      2985      2990      2992
      2986      2985      2987      2986      2985      2990      2987      2985      2990
      2987      2990      2991      2987      2990      2992      2988      2987      2989
      2988      2987      2990      2989      2987      2990      2990      2992      2993
      2990      2992      2994      2990      2992      2995      2991      2990      2992
      2992      2995      2996      2992      2995      2997      2992      2995      2998
      2993      2992      2994      2993      2992      2995      2994      2992      2995
      2995      2998      2999      2995      2998      3000      2995      2998      3001
      2996      2995      2997      2996      2995      2998      2997      2995      2998
      2998      3001      3002      2998      3001      3003      2998      3001      3004
      2999      2998      3000      2999      2998      3001      3000      2998      3001
      3001      3004      3005      3001      3004      3006      3001      3004      3007
      3002      3001      3003      3002      3001      3004      3003      3001      3004
      3004      3007      3008      3004      3007      3009      3004      3007      3010
      3005      3004      3006      3005      3004      3007      3006      3004      3007
      3008      3007      3009      3008      3007      3010      3009      3007      3010
      3011      3014      3015      3011      3014      3016      3011      3014      3017
      3012      3011      3013      3012      3011      3014      3013      3011      3014
      3014      3017      3018      3014      3017      3019      3014      3017      3020
      3015      3014      3016      3015      3014      3017      3016      3014      3017
      3017      3020      3021      3017      3020      3022      3017      3020      3023
      3018      3017      3019      3018      3017      3020      3019      3017      3020
      3020      3023      3024      3020      3023      3025      3020      3023      3026
      3021      3020      3022      3021      3020      3023      3022      3020      3023
      3023      3026      3027      3023      3026      3028      3023      3026      3029
      3024      3023      3025      3024      3023      3026      3025      3023      3026
      3026      3029      3030      3026      3029      3031      3026      3029      3032
      3027      3026      3028      3027      3026      3029      3028      3026      3029
      3029      3032      3033      3029      3032      3034      3029      3032      3035
      3030      3029      3031      3030      3029      3032      3031      3029      3032
      3032      3035      3036      3032      3035      3037      3032      3035      3038
      3033      3032      3034      3033      3032      3035      3034      3032      3035
      3035      3038      3039      3035      3038      3040      3035      3038      3041
      3036      3035      3037      3036      3035      3038      3037      3035      3038
      3038      3041      3042      3038      3041      3043      3038      3041      3044
      3039      3038      3040      3039      3038      3041      3040      3038      3041
      3041      3044      3045      3041      3044      3046      3041      3044      3047
      3042      3041      3043      3042      3041      3044      3043      3041      3044
      3044      3047      3048      3044      3047      3049      3044      3047      3050
      3045      3044      3046      3045      3044      3047      3046      3044      3047
      3047      3050      3051      3047      3050      3052      3047      3050      3053
      3048      3047      3049      3048      3047      3050      3049      3047      3050
      3051      3050      3052      3051      3050      3053      3052      3050      3053
      3054      3057      3058      3054      3059      3060      3054      3059      3061
      3054      3059      3063      3055      3054      3056      3055      3054      3057
      3055      3054      3059      3056      3054      3057      3056      3054      3059
      3057      3054      3059      3059      3061      3062      3059      3063      3064
      3059      3063      3065      3059      3063      3070      3060      3059      3061
      3060      3059      3063      3061      3059      3063      3063      3070      3066
      3064      3063      3065      3064      3063      3070      3065      3063      3070
      3066      3069      3071      3067      3066      3068      3067      3066      3069
      3067      3066      3070      3068      3066      3069      3068      3066      3070
      3069      3066      3070      3069      3071      3072      3069      3071      3073
      3069      3071      3074      3071      3074      3075      3071      3074      3076
      3071      3074      3082      3072      3071      3073      3072      3071      3074
      3073      3071      3074      3074      3076      3077      3074      3082      3083
      3074      3082      3084      3074      3082      3085      3075      3074      3076
      3075      3074      3082      3076      3074      3082      3076      3077      3078
      3076      3077      3079      3077      3079      3080      3077      3079      3081
      3077      3079      3091      3078      3077      3079      3079      3091      3092
      3079      3091      3093      3079      3091      3094      3080      3079      3081
      3080      3079      3091      3081      3079      3091      3082      3085      3086
      3083      3082      3084      3083      3082      3085      3084      3082      3085
      3085      3086      3087      3085      3086      3088      3086      3088      3089
      3086      3088      3090      3086      3088      3135      3087      3086      3088
      3088      3135      3136      3088      3135      3137      3088      3135      3138
      3089      3088      3090      3089      3088      3135      3090      3088      3135
      3091      3094      3095      3091      3094      3096      3091      3094      3097
      3092      3091      3093      3092      3091      3094      3093      3091      3094
      3094      3097      3098      3094      3097      3099      3094      3097      3100
      3095      3094      3096      3095      3094      3097      3096      3094      3097
      3097      3100      3101      3097      3100      3102      3097      3100      3103
      3098      3097      3099      3098      3097      3100      3099      3097      3100
      3100      3103      3104      3100      3103      3105      3100      3103      3106
      3101      3100      3102      3101      3100      3103      3102      3100      3103
      3103      3106      3107      3103      3106      3108      3103      3106      3109
      3104      3103      3105      3104      3103      3106      3105      3103      3106
      3106      3109      3110      3106      3109      3111      3106      3109      3114
      3107      3106      3108      3107      3106      3109      3108      3106      3109
      3109      3111      3112      3109      3111      3113      3109      3111      3114
      3109      3114      3111      3109      3114      3115      3109      3114      3116
      3110      3109      3111      3110      3109      3114      3111      3109      3114
      3111      3114      3115      3111      3114      3116      3112      3111      3113
      3112      3111      3114      3113      3111      3114      3114      3116      3117
      3114      3116      3118      3114      3116      3119      3115      3114      3116
      3116      3119      3120      3116      3119      3121      3116      3119      3122
      3117      3116      3118      3117      3116      3119      3118      3116      3119
      3119      3122      3123      3119      3122      3124      3119      3122      3125
      3120      3119      3121      3120      3119      3122      3121      3119      3122
      3122      3125      3126      3122      3125      3127      3122      3125      3128
      3123      3122      3124      3123      3122      3125      3124      3122      3125
      3125      3128      3129      3125      3128      3130      3125      3128      3131
      3126      3125      3127      3126      3125      3128      3127      3125      3128
      3128      3131      3132      3128      3131      3133      3128      3131      3134
      3129      3128      3130      3129      3128      3131      3130      3128      3131
      3132      3131      3133      3132      3131      3134      3133      3131      3134
      3135      3138      3139      3135      3138      3140      3135      3138      3141
      3136      3135      3137      3136      3135      3138      3137      3135      3138
      3138      3141      3142      3138      3141      3143      3138      3141      3144
      3139      3138      3140      3139      3138      3141      3140      3138      3141
      3141      3144      3145      3141      3144      3146      3141      3144      3147
      3142      3141      3143      3142      3141      3144      3143      3141      3144
      3144      3147      3148      3144      3147      3149      3144      3147      3150
      3145      3144      3146      3145      3144      3147      3146      3144      3147
      3147      3150      3151      3147      3150      3152      3147      3150      3153
      3148      3147      3149      3148      3147      3150      3149      3147      3150
      3150      3153      3154      3150      3153      3155      3150      3153      3156
      3151      3150      3152      3151      3150      3153      3152      3150      3153
      3153      3156      3157      3153      3156      3158      3153      3156      3159
      3154      3153      3155      3154      3153      3156      3155      3153      3156
      3156      3159      3160      3156      3159      3161      3156      3159      3162
      3157      3156      3158      3157      3156      3159      3158      3156      3159
      3159      3162      3163      3159      3162      3164      3159      3162      3165
      3160      3159      3161      3160      3159      3162      3161      3159      3162
      3162      3165      3166      3162      3165      3167      3162      3165      3168
      3163      3162      3164      3163      3162      3165      3164      3162      3165
      3165      3168      3169      3165      3168      3170      3165      3168      3171
      3166      3165      3167      3166      3165      3168      3167      3165      3168
      3168      3171      3172      3168      3171      3173      3168      3171      3174
      3169      3168      3170      3169      3168      3171      3170      3168      3171
      3171      3174      3175      3171      3174      3176      3171      3174      3177
      3172      3171      3173      3172      3171      3174      3173      3171      3174
      3175      3174      3176      3175      3174      3177      3176      3174      3177
      3178      3181      3182      3178      3183      3184      3178      3183      3185
      3178      3183      3187      3179      3178      3180      3179      3178      3181
      3179      3178      3183      3180      3178      3181      3180      3178      3183
      3181      3178      3183      3183      3185      3186      3183      3187      3188
      3183      3187      3189      3183      3187      3194      3184      3183      3185
      3184      3183      3187      3185      3183      3187      3187      3194      3190
      3188      3187      3189      3188      3187      3194      3189      3187      3194
      3190      3193      3195      3191      3190      3192      3191      3190      3193
      3191      3190      3194      3192      3190      3193      3192      3190      3194
      3193      3190      3194      3193      3195      3196      3193      3195      3197
      3193      3195      3198      3195      3198      3199      3195      3198      3200
      3195      3198      3206      3196      3195      3197      3196      3195      3198
      3197      3195      3198      3198      3200      3201      3198      3206      3207
      3198      3206      3208      3198      3206      3209      3199      3198      3200
      3199      3198      3206      3200      3198      3206      3200      3201      3202
      3200      3201      3203      3201      3203      3204      3201      3203      3205
      3201      3203      3215      3202      3201      3203      3203      3215      3216
      3203      3215      3217      3203      3215      3218      3204      3203      3205
      3204      3203      3215      3205      3203      3215      3206      3209      3210
      3207      3206      3208      3207      3206      3209      3208      3206      3209
      3209      3210      3211      3209      3210      3212      3210      3212      3213
      3210      3212      3214      3210      3212      3259      3211      3210      3212
      3212      3259      3260      3212      3259      3261      3212      3259      3262
      3213      3212      3214      3213      3212      3259      3214      3212      3259
      3215      3218      3219      3215      3218      3220      3215      3218      3221
      3216      3215      3217      3216      3215      3218      3217      3215      3218
      3218      3221      3222      3218      3221      3223      3218      3221      3224
      3219      3218      3220      3219      3218      3221      3220      3218      3221
      3221      3224      3225      3221      3224      3226      3221      3224      3227
      3222      3221      3223      3222      3221      3224      3223      3221      3224
      3224      3227      3228      3224      3227      3229      3224      3227      3230
      3225      3224      3226      3225      3224      3227      3226      3224      3227
      3227      3230      3231      3227      3230      3232      3227      3230      3233
      3228      3227      3229      3228      3227      3230      3229      3227      3230
      3230      3233      3234      3230      3233      3235      3230      3233      3238
      3231      3230      3232      3231      3230      3233      3232      3230      3233
      3233      3235      3236      3233      3235      3237      3233      3235      3238
      3233      3238      3235      3233      3238      3239      3233      3238      3240
      3234      3233      3235      3234      3233      3238      3235      3233      3238
      3235      3238      3239      3235      3238      3240      3236      3235      3237
      3236      3235      3238      3237      3235      3238      3238      3240      3241
      3238      3240      3242      3238      3240      3243      3239      3238      3240
      3240      3243      3244      3240      3243      3245      3240      3243      3246
      3241      3240      3242      3241      3240      3243      3242      3240      3243
      3243      3246      3247      3243      3246      3248      3243      3246      3249
      3244      3243      3245      3244      3243      3246      3245      3243      3246
      3246      3249      3250      3246      3249      3251      3246      3249      3252
      3247      3246      3248      3247      3246      3249      3248      3246      3249
      3249      3252      3253      3249      3252      3254      3249      3252      3255
      3250      3249      3251      3250      3249      3252      3251      3249      3252
      3252      3255      3256      3252      3255      3257      3252      3255      3258
      3253      3252      3254      3253      3252      3255      3254      3252      3255
      3256      3255      3257      3256      3255      3258      3257      3255      3258
      3259      3262      3263      3259      3262      3264      3259      3262      3265
      3260      3259      3261      3260      3259      3262      3261      3259      3262
      3262      3265      3266      3262      3265      3267      3262      3265      3268
      3263      3262      3264      3263      3262      3265      3264      3262      3265
      3265      3268      3269      3265      3268      3270      3265      3268      3271
      3266      3265      3267      3266      3265      3268      3267      3265      3268
      3268      3271      3272      3268      3271      3273      3268      3271      3274
      3269      3268      3270      3269      3268      3271      3270      3268      3271
      3271      3274      3275      3271      3274      3276      3271      3274      3277
      3272      3271      3273      3272      3271      3274      3273      3271      3274
      3274      3277      3278      3274      3277      3279      3274      3277      3280
      3275      3274      3276      3275      3274      3277      3276      3274      3277
      3277      3280      3281      3277      3280      3282      3277      3280      3283
      3278      3277      3279      3278      3277      3280      3279      3277      3280
      3280      3283      3284      3280      3283      3285      3280      3283      3286
      3281      3280      3282      3281      3280      3283      3282      3280      3283
      3283      3286      3287      3283      3286      3288      3283      3286      3289
      3284      3283      3285      3284      3283      3286      3285      3283      3286
      3286      3289      3290      3286      3289      3291      3286      3289      3292
      3287      3286      3288      3287      3286      3289      3288      3286      3289
      3289      3292      3293      3289      3292      3294      3289      3292      3295
      3290      3289      3291      3290      3289      3292      3291      3289      3292
      3292      3295      3296      3292      3295      3297      3292      3295      3298
      3293      3292      3294      3293      3292      3295      3294      3292      3295
      3295      3298      3299      3295      3298      3300      3295      3298      3301
      3296      3295      3297      3296      3295      3298      3297      3295      3298
      3299      3298      3300      3299      3298      3301      3300      3298      3301
      3302      3305      3306      3302      3307      3308      3302      3307      3309
      3302      3307      3311      3303      3302      3304      3303      3302      3305
      3303      3302      3307      3304      3302      3305      3304      3302      3307
      3305      3302      3307      3307      3309      3310      3307      3311      3312
      3307      3311      3313      3307      3311      3318      3308      3307      3309
      3308      3307      3311      3309      3307      3311      3311      3318      3314
      3312      3311      3313      3312      3311      3318      3313      3311      3318
      3314      3317      3319      3315      3314      3316      3315      3314      3317
      3315      3314      3318      3316      3314      3317      3316      3314      3318
      3317      3314      3318      3317      3319      3320      3317      3319      3321
      3317      3319      3322      3319      3322      3323      3319      3322      3324
      3319      3322      3330      3320      3319      3321      3320      3319      3322
      3321      3319      3322      3322      3324      3325      3322      3330      3331
      3322      3330      3332      3322      3330      3333      3323      3322      3324
      3323      3322      3330      3324      3322      3330      3324      3325      3326
      3324      3325      3327      3325      3327      3328      3325      3327      3329
      3325      3327      3339      3326      3325      3327      3327      3339      3340
      3327      3339      3341      3327      3339      3342      3328      3327      3329
      3328      3327      3339      3329      3327      3339      3330      3333      3334
      3331      3330      3332      3331      3330      3333      3332      3330      3333
      3333      3334      3335      3333      3334      3336      3334      3336      3337
      3334      3336      3338      3334      3336      3380      3335      3334      3336
      3336      3380      3381      3336      3380      3382      3336      3380      3383
      3337      3336      3338      3337      3336      3380      3338      3336      3380
      3339      3342      3343      3339      3342      3344      3339      3342      3345
      3340      3339      3341      3340      3339      3342      3341      3339      3342
      3342      3345      3346      3342      3345      3347      3342      3345      3348
      3343      3342      3344      3343      3342      3345      3344      3342      3345
      3345      3348      3349      3345      3348      3350      3345      3348      3351
      3346      3345      3347      3346      3345      3348      3347      3345      3348
      3348      3351      3352      3348      3351      3353      3348      3351      3354
      3349      3348      3350      3349      3348      3351      3350      3348      3351
      3351      3354      3355      3351      3354      3356      3351      3354      3357
      3352      3351      3353      3352      3351      3354      3353      3351      3354
      3354      3357      3358      3354      3357      3359      3355      3354      3356
      3355      3354      3357      3356      3354      3357      3357      3359      3360
      3357      3359      3361      3358      3357      3359      3359      3361      3362
      3359      3361      3363      3359      3361      3364      3360      3359      3361
      3361      3364      3365      3361      3364      3366      3361      3364      3367
      3362      3361      3363      3362      3361      3364      3363      3361      3364
      3364      3367      3368      3364      3367      3369      3364      3367      3370
      3365      3364      3366      3365      3364      3367      3366      3364      3367
      3367      3370      3371      3367      3370      3372      3367      3370      3373
      3368      3367      3369      3368      3367      3370      3369      3367      3370
      3370      3373      3374      3370      3373      3375      3370      3373      3376
      3371      3370      3372      3371      3370      3373      3372      3370      3373
      3373      3376      3377      3373      3376      3378      3373      3376      3379
      3374      3373      3375      3374      3373      3376      3375      3373      3376
      3377      3376      3378      3377      3376      3379      3378      3376      3379
      3380      3383      3384      3380      3383      3385      3380      3383      3386
      3381      3380      3382      3381      3380      3383      3382      3380      3383
      3383      3386      3387      3383      3386      3388      3383      3386      3389
      3384      3383      3385      3384      3383      3386      3385      3383      3386
      3386      3389      3390      3386      3389      3391      3386      3389      3392
      3387      3386      3388      3387      3386      3389      3388      3386      3389
      3389      3392      3393      3389      3392      3394      3389      3392      3395
      3390      3389      3391      3390      3389      3392      3391      3389      3392
      3392      3395      3396      3392      3395      3397      3392      3395      3398
      3393      3392      3394      3393      3392      3395      3394      3392      3395
      3395      3398      3399      3395      3398      3400      3395      3398      3401
      3396      3395      3397      3396      3395      3398      3397      3395      3398
      3398      3401      3402      3398      3401      3403      3398      3401      3404
      3399      3398      3400      3399      3398      3401      3400      3398      3401
      3401      3404      3405      3401      3404      3406      3401      3404      3407
      3402      3401      3403      3402      3401      3404      3403      3401      3404
      3404      3407      3408      3404      3407      3409      3404      3407      3410
      3405      3404      3406      3405      3404      3407      3406      3404      3407
      3407      3410      3411      3407      3410      3412      3407      3410      3413
      3408      3407      3409      3408      3407      3410      3409      3407      3410
      3410      3413      3414      3410      3413      3415      3410      3413      3416
      3411      3410      3412      3411      3410      3413      3412      3410      3413
      3413      3416      3417      3413      3416      3418      3413      3416      3419
      3414      3413      3415      3414      3413      3416      3415      3413      3416
      3416      3419      3420      3416      3419      3421      3416      3419      3422
      3417      3416      3418      3417      3416      3419      3418      3416      3419
      3420      3419      3421      3420      3419      3422      3421      3419      3422
      3423      3427      3428      3423      3427      3429      3423      3427      3430
      3424      3423      3425      3424      3423      3426      3424      3423      3427
      3425      3423      3426      3425      3423      3427      3426      3423      3427
      3427      3430      3431      3427      3430      3432      3427      3430      3437
      3428      3427      3429      3428      3427      3430      3429      3427      3430
      3430      3437      3433      3431      3430      3432      3431      3430      3437
      3432      3430      3437      3433      3436      3438      3434      3433      3435
      3434      3433      3436      3434      3433      3437      3435      3433      3436
      3435      3433      3437      3436      3433      3437      3436      3438      3439
      3436      3438      3440      3436      3438      3441      3438      3441      3442
      3438      3441      3443      3438      3441      3449      3439      3438      3440
      3439      3438      3441      3440      3438      3441      3441      3443      3444
      3441      3449      3450      3441      3449      3451      3441      3449      3452
      3442      3441      3443      3442      3441      3449      3443      3441      3449
      3443      3444      3445      3443      3444      3446      3444      3446      3447
      3444      3446      3448      3444      3446      3458      3445      3444      3446
      3446      3458      3459      3446      3458      3460      3446      3458      3461
      3447      3446      3448      3447      3446      3458      3448      3446      3458
      3449      3452      3453      3450      3449      3451      3450      3449      3452
      3451      3449      3452      3452      3453      3454      3452      3453      3455
      3453      3455      3456      3453      3455      3457      3453      3455      3502
      3454      3453      3455      3455      3502      3503      3455      3502      3504
      3455      3502      3505      3456      3455      3457      3456      3455      3502
      3457      3455      3502      3458      3461      3462      3458      3461      3463
      3458      3461      3464      3459      3458      3460      3459      3458      3461
      3460      3458      3461      3461      3464      3465      3461      3464      3466
      3461      3464      3467      3462      3461      3463      3462      3461      3464
      3463      3461      3464      3464      3467      3468      3464      3467      3469
      3464      3467      3470      3465      3464      3466      3465      3464      3467
      3466      3464      3467      3467      3470      3471      3467      3470      3472
      3467      3470      3473      3468      3467      3469      3468      3467      3470
      3469      3467      3470      3470      3473      3474      3470      3473      3475
      3470      3473      3476      3471      3470      3472      3471      3470      3473
      3472      3470      3473      3473      3476      3477      3473      3476      3478
      3473      3476      3481      3474      3473      3475      3474      3473      3476
      3475      3473      3476      3476      3478      3479      3476      3478      3480
      3476      3478      3481      3476      3481      3478      3476      3481      3482
      3476      3481      3483      3477      3476      3478      3477      3476      3481
      3478      3476      3481      3478      3481      3482      3478      3481      3483
      3479      3478      3480      3479      3478      3481      3480      3478      3481
      3481      3483      3484      3481      3483      3485      3481      3483      3486
      3482      3481      3483      3483      3486      3487      3483      3486      3488
      3483      3486      3489      3484      3483      3485      3484      3483      3486
      3485      3483      3486      3486      3489      3490      3486      3489      3491
      3486      3489      3492      3487      3486      3488      3487      3486      3489
      3488      3486      3489      3489      3492      3493      3489      3492      3494
      3489      3492      3495      3490      3489      3491      3490      3489      3492
      3491      3489      3492      3492      3495      3496      3492      3495      3497
      3492      3495      3498      3493      3492      3494      3493      3492      3495
      3494      3492      3495      3495      3498      3499      3495      3498      3500
      3495      3498      3501      3496      3495      3497      3496      3495      3498
      3497      3495      3498      3499      3498      3500      3499      3498      3501
      3500      3498      3501      3502      3505      3506      3502      3505      3507
      3502      3505      3508      3503      3502      3504      3503      3502      3505
      3504      3502      3505      3505      3508      3509      3505      3508      3510
      3505      3508      3511      3506      3505      3507      3506      3505      3508
      3507      3505      3508      3508      3511      3512      3508      3511      3513
      3508      3511      3514      3509      3508      3510      3509      3508      3511
      3510      3508      3511      3511      3514      3515      3511      3514      3516
      3511      3514      3517      3512      3511      3513      3512      3511      3514
      3513      3511      3514      3514      3517      3518      3514      3517      3519
      3514      3517      3520      3515      3514      3516      3515      3514      3517
      3516      3514      3517      3517      3520      3521      3517      3520      3522
      3517      3520      3523      3518      3517      3519      3518      3517      3520
      3519      3517      3520      3520      3523      3524      3520      3523      3525
      3520      3523      3526      3521      3520      3522      3521      3520      3523
      3522      3520      3523      3523      3526      3527      3523      3526      3528
      3523      3526      3529      3524      3523      3525      3524      3523      3526
      3525      3523      3526      3526      3529      3530      3526      3529      3531
      3526      3529      3532      3527      3526      3528      3527      3526      3529
      3528      3526      3529      3529      3532      3533      3529      3532      3534
      3529      3532      3535      3530      3529      3531      3530      3529      3532
      3531      3529      3532      3532      3535      3536      3532      3535      3537
      3532      3535      3538      3533      3532      3534      3533      3532      3535
      3534      3532      3535      3535      3538      3539      3535      3538      3540
      3535      3538      3541      3536      3535      3537      3536      3535      3538
      3537      3535      3538      3538      3541      3542      3538      3541      3543
      3538      3541      3544      3539      3538      3540      3539      3538      3541
      3540      3538      3541      3542      3541      3543      3542      3541      3544
      3543      3541      3544      3545      3549      3550      3545      3549      3551
      3545      3549      3552      3546      3545      3547      3546      3545      3548
      3546      3545      3549      3547      3545      3548      3547      3545      3549
      3548      3545      3549      3549      3552      3553      3549      3552      3554
      3549      3552      3559      3550      3549      3551      3550      3549      3552
      3551      3549      3552      3552      3559      3555      3553      3552      3554
      3553      3552      3559      3554      3552      3559      3555      3558      3560
      3556      3555      3557      3556      3555      3558      3556      3555      3559
      3557      3555      3558      3557      3555      3559      3558      3555      3559
      3558      3560      3561      3558      3560      3562      3558      3560      3563
      3560      3563      3564      3560      3563      3565      3560      3563      3571
      3561      3560      3562      3561      3560      3563      3562      3560      3563
      3563      3565      3566      3563      3571      3572      3563      3571      3573
      3563      3571      3574      3564      3563      3565      3564      3563      3571
      3565      3563      3571      3565      3566      3567      3565      3566      3568
      3566      3568      3569      3566      3568      3570      3566      3568      3580
      3567      3566      3568      3568      3580      3581      3568      3580      3582
      3568      3580      3583      3569      3568      3570      3569      3568      3580
      3570      3568      3580      3571      3574      3575      3572      3571      3573
      3572      3571      3574      3573      3571      3574      3574      3575      3576
      3574      3575      3577      3575      3577      3578      3575      3577      3579
      3575      3577      3627      3576      3575      3577      3577      3627      3628
      3577      3627      3629      3577      3627      3630      3578      3577      3579
      3578      3577      3627      3579      3577      3627      3580      3583      3584
      3580      3583      3585      3580      3583      3586      3581      3580      3582
      3581      3580      3583      3582      3580      3583      3583      3586      3587
      3583      3586      3588      3583      3586      3589      3584      3583      3585
      3584      3583      3586      3585      3583      3586      3586      3589      3590
      3586      3589      3591      3586      3589      3592      3587      3586      3588
      3587      3586      3589      3588      3586      3589      3589      3592      3593
      3589      3592      3594      3589      3592      3595      3590      3589      3591
      3590      3589      3592      3591      3589      3592      3592      3595      3596
      3592      3595      3597      3592      3595      3598      3593      3592      3594
      3593      3592      3595      3594      3592      3595      3595      3598      3599
      3595      3598      3600      3596      3595      3597      3596      3595      3598
      3597      3595      3598      3598      3600      3601      3598      3600      3602
      3599      3598      3600      3600      3602      3603      3600      3602      3604
      3600      3602      3605      3601      3600      3602      3602      3605      3606
      3602      3605      3607      3602      3605      3608      3603      3602      3604
      3603      3602      3605      3604      3602      3605      3605      3608      3609
      3605      3608      3610      3605      3608      3611      3606      3605      3607
      3606      3605      3608      3607      3605      3608      3608      3611      3612
      3608      3611      3613      3608      3611      3614      3609      3608      3610
      3609      3608      3611      3610      3608      3611      3611      3614      3615
      3611      3614      3616      3611      3614      3617      3612      3611      3613
      3612      3611      3614      3613      3611      3614      3614      3617      3618
      3614      3617      3619      3614      3617      3620      3615      3614      3616
      3615      3614      3617      3616      3614      3617      3617      3620      3621
      3617      3620      3622      3617      3620      3623      3618      3617      3619
      3618      3617      3620      3619      3617      3620      3620      3623      3624
      3620      3623      3625      3620      3623      3626      3621      3620      3622
      3621      3620      3623      3622      3620      3623      3624      3623      3625
      3624      3623      3626      3625      3623      3626      3627      3630      3631
      3627      3630      3632      3627      3630      3633      3628      3627      3629
      3628      3627      3630      3629      3627      3630      3630      3633      3634
      3630      3633      3635      3630      3633      3636      3631      3630      3632
      3631      3630      3633      3632      3630      3633      3633      3636      3637
      3633      3636      3638      3633      3636      3639      3634      3633      3635
      3634      3633      3636      3635      3633      3636      3636      3639      3640
      3636      3639      3641      3636      3639      3642      3637      3636      3638
      3637      3636      3639      3638      3636      3639      3639      3642      3643
      3639      3642      3644      3639      3642      3645      3640      3639      3641
      3640      3639      3642      3641      3639      3642      3642      3645      3646
      3642      3645      3647      3642      3645      3648      3643      3642      3644
      3643      3642      3645      3644      3642      3645      3645      3648      3649
      3645      3648      3650      3645      3648      3651      3646      3645      3647
      3646      3645      3648      3647      3645      3648      3648      3651      3652
      3648      3651      3653      3648      3651      3654      3649      3648      3650
      3649      3648      3651      3650      3648      3651      3651      3654      3655
      3651      3654      3656      3651      3654      3657      3652      3651      3653
      3652      3651      3654      3653      3651      3654      3654      3657      3658
      3654      3657      3659      3654      3657      3660      3655      3654      3656
      3655      3654      3657      3656      3654      3657      3657      3660      3661
      3657      3660      3662      3657      3660      3663      3658      3657      3659
      3658      3657      3660      3659      3657      3660      3660      3663      3664
      3660      3663      3665      3660      3663      3666      3661      3660      3662
      3661      3660      3663      3662      3660      3663      3663      3666      3667
      3663      3666      3668      3663      3666      3669      3664      3663      3665
      3664      3663      3666      3665      3663      3666      3667      3666      3668
      3667      3666      3669      3668      3666      3669      3670      3674      3675
      3670      3674      3676      3670      3674      3677      3671      3670      3672
      3671      3670      3673      3671      3670      3674      3672      3670      3673
      3672      3670      3674      3673      3670      3674      3674      3677      3678
      3674      3677      3679      3674      3677      3684      3675      3674      3676
      3675      3674      3677      3676      3674      3677      3677      3684      3680
      3678      3677      3679      3678      3677      3684      3679      3677      3684
      3680      3683      3685      3681      3680      3682      3681      3680      3683
      3681      3680      3684      3682      3680      3683      3682      3680      3684
      3683      3680      3684      3683      3685      3686      3683      3685      3687
      3683      3685      3688      3685      3688      3689      3685      3688      3690
      3685      3688      3696      3686      3685      3687      3686      3685      3688
      3687      3685      3688      3688      3690      3691      3688      3696      3697
      3688      3696      3698      3688      3696      3699      3689      3688      3690
      3689      3688      3696      3690      3688      3696      3690      3691      3692
      3690      3691      3693      3691      3693      3694      3691      3693      3695
      3691      3693      3705      3692      3691      3693      3693      3705      3706
      3693      3705      3707      3693      3705      3708      3694      3693      3695
      3694      3693      3705      3695      3693      3705      3696      3699      3700
      3697      3696      3698      3697      3696      3699      3698      3696      3699
      3699      3700      3701      3699      3700      3702      3700      3702      3703
      3700      3702      3704      3700      3702      3752      3701      3700      3702
      3702      3752      3753      3702      3752      3754      3702      3752      3755
      3703      3702      3704      3703      3702      3752      3704      3702      3752
      3705      3708      3709      3705      3708      3710      3705      3708      3711
      3706      3705      3707      3706      3705      3708      3707      3705      3708
      3708      3711      3712      3708      3711      3713      3708      3711      3714
      3709      3708      3710      3709      3708      3711      3710      3708      3711
      3711      3714      3715      3711      3714      3716      3711      3714      3717
      3712      3711      3713      3712      3711      3714      3713      3711      3714
      3714      3717      3718      3714      3717      3719      3714      3717      3720
      3715      3714      3716      3715      3714      3717      3716      3714      3717
      3717      3720      3721      3717      3720      3722      3717      3720      3723
      3718      3717      3719      3718      3717      3720      3719      3717      3720
      3720      3723      3724      3720      3723      3725      3721      3720      3722
      3721      3720      3723      3722      3720      3723      3723      3725      3726
      3723      3725      3727      3724      3723      3725      3725      3727      3728
      3725      3727      3729      3725      3727      3730      3726      3725      3727
      3727      3730      3731      3727      3730      3732      3727      3730      3733
      3728      3727      3729      3728      3727      3730      3729      3727      3730
      3730      3733      3734      3730      3733      3735      3730      3733      3736
      3731      3730      3732      3731      3730      3733      3732      3730      3733
      3733      3736      3737      3733      3736      3738      3733      3736      3739
      3734      3733      3735      3734      3733      3736      3735      3733      3736
      3736      3739      3740      3736      3739      3741      3736      3739      3742
      3737      3736      3738      3737      3736      3739      3738      3736      3739
      3739      3742      3743      3739      3742      3744      3739      3742      3745
      3740      3739      3741      3740      3739      3742      3741      3739      3742
      3742      3745      3746      3742      3745      3747      3742      3745      3748
      3743      3742      3744      3743      3742      3745      3744      3742      3745
      3745      3748      3749      3745      3748      3750      3745      3748      3751
      3746      3745      3747      3746      3745      3748      3747      3745      3748
      3749      3748      3750      3749      3748      3751      3750      3748      3751
      3752      3755      3756      3752      3755      3757      3752      3755      3758
      3753      3752      3754      3753      3752      3755      3754      3752      3755
      3755      3758      3759      3755      3758      3760      3755      3758      3761
      3756      3755      3757      3756      3755      3758      3757      3755      3758
      3758      3761      3762      3758      3761      3763      3758      3761      3764
      3759      3758      3760      3759      3758      3761      3760      3758      3761
      3761      3764      3765      3761      3764      3766      3761      3764      3767
      3762      3761      3763      3762      3761      3764      3763      3761      3764
      3764      3767      3768      3764      3767      3769      3764      3767      3770
      3765      3764      3766      3765      3764      3767      3766      3764      3767
      3767      3770      3771      3767      3770      3772      3767      3770      3773
      3768      3767      3769      3768      3767      3770      3769      3767      3770
      3770      3773      3774      3770      3773      3775      3770      3773      3776
      3771      3770      3772      3771      3770      3773      3772      3770      3773
      3773      3776      3777      3773      3776      3778      3773      3776      3779
      3774      3773      3775      3774      3773      3776      3775      3773      3776
      3776      3779      3780      3776      3779      3781      3776      3779      3782
      3777      3776      3778      3777      3776      3779      3778      3776      3779
      3779      3782      3783      3779      3782      3784      3779      3782      3785
      3780      3779      3781      3780      3779      3782      3781      3779      3782
      3782      3785      3786      3782      3785      3787      3782      3785      3788
      3783      3782      3784      3783      3782      3785      3784      3782      3785
      3785      3788      3789      3785      3788      3790      3785      3788      3791
      3786      3785      3787      3786      3785      3788      3787      3785      3788
      3788      3791      3792      3788      3791      3793      3788      3791      3794
      3789      3788      3790      3789      3788      3791      3790      3788      3791
      3792      3791      3793      3792      3791      3794      3793      3791      3794
      3795      3798      3799      3795      3800      3801      3795      3800      3802
      3795      3800      3804      3796      3795      3797      3796      3795      3798
      3796      3795      3800      3797      3795      3798      3797      3795      3800
      3798      3795      3800      3800      3802      3803      3800      3804      3805
      3800      3804      3806      3800      3804      3811      3801      3800      3802
      3801      3800      3804      3802      3800      3804      3804      3811      3807
      3805      3804      3806      3805      3804      3811      3806      3804      3811
      3807      3810      3812      3808      3807      3809      3808      3807      3810
      3808      3807      3811      3809      3807      3810      3809      3807      3811
      3810      3807      3811      3810      3812      3813      3810      3812      3814
      3810      3812      3815      3812      3815      3816      3812      3815      3817
      3812      3815      3823      3813      3812      3814      3813      3812      3815
      3814      3812      3815      3815      3817      3818      3815      3823      3824
      3815      3823      3825      3815      3823      3826      3816      3815      3817
      3816      3815      3823      3817      3815      3823      3817      3818      3819
      3817      3818      3820      3818      3820      3821      3818      3820      3822
      3818      3820      3832      3819      3818      3820      3820      3832      3833
      3820      3832      3834      3820      3832      3835      3821      3820      3822
      3821      3820      3832      3822      3820      3832      3823      3826      3827
      3824      3823      3825      3824      3823      3826      3825      3823      3826
      3826      3827      3828      3826      3827      3829      3827      3829      3830
      3827      3829      3831      3827      3829      3873      3828      3827      3829
      3829      3873      3874      3829      3873      3875      3829      3873      3876
      3830      3829      3831      3830      3829      3873      3831      3829      3873
      3832      3835      3836      3832      3835      3837      3832      3835      3838
      3833      3832      3834      3833      3832      3835      3834      3832      3835
      3835      3838      3839      3835      3838      3840      3835      3838      3841
      3836      3835      3837      3836      3835      3838      3837      3835      3838
      3838      3841      3842      3838      3841      3843      3838      3841      3844
      3839      3838      3840      3839      3838      3841      3840      3838      3841
      3841      3844      3845      3841      3844      3846      3841      3844      3847
      3842      3841      3843      3842      3841      3844      3843      3841      3844
      3844      3847      3848      3844      3847      3849      3844      3847      3850
      3845      3844      3846      3845      3844      3847      3846      3844      3847
      3847      3850      3851      3847      3850      3852      3848      3847      3849
      3848      3847      3850      3849      3847      3850      3850      3852      3853
      3850      3852      3854      3851      3850      3852      3852      3854      3855
      3852      3854      3856      3852      3854      3857      3853      3852      3854
      3854      3857      3858      3854      3857      3859      3854      3857      3860
      3855      3854      3856      3855      3854      3857      3856      3854      3857
      3857      3860      3861      3857      3860      3862      3857      3860      3863
      3858      3857      3859      3858      3857      3860      3859      3857      3860
      3860      3863      3864      3860      3863      3865      3860      3863      3866
      3861      3860      3862      3861      3860      3863      3862      3860      3863
      3863      3866      3867      3863      3866      3868      3863      3866      3869
      3864      3863      3865      3864      3863      3866      3865      3863      3866
      3866      3869      3870      3866      3869      3871      3866      3869      3872
      3867      3866      3868      3867      3866      3869      3868      3866      3869
      3870      3869      3871      3870      3869      3872      3871      3869      3872
      3873      3876      3877      3873      3876      3878      3873      3876      3879
      3874      3873      3875      3874      3873      3876      3875      3873      3876
      3876      3879      3880      3876      3879      3881      3876      3879      3882
      3877      3876      3878      3877      3876      3879      3878      3876      3879
      3879      3882      3883      3879      3882      3884      3879      3882      3885
      3880      3879      3881      3880      3879      3882      3881      3879      3882
      3882      3885      3886      3882      3885      3887      3882      3885      3888
      3883      3882      3884      3883      3882      3885      3884      3882      3885
      3885      3888      3889      3885      3888      3890      3885      3888      3891
      3886      3885      3887      3886      3885      3888      3887      3885      3888
      3888      3891      3892      3888      3891      3893      3888      3891      3894
      3889      3888      3890      3889      3888      3891      3890      3888      3891
      3891      3894      3895      3891      3894      3896      3891      3894      3897
      3892      3891      3893      3892      3891      3894      3893      3891      3894
      3894      3897      3898      3894      3897      3899      3894      3897      3900
      3895      3894      3896      3895      3894      3897      3896      3894      3897
      3897      3900      3901      3897      3900      3902      3897      3900      3903
      3898      3897      3899      3898      3897      3900      3899      3897      3900
      3900      3903      3904      3900      3903      3905      3900      3903      3906
      3901      3900      3902      3901      3900      3903      3902      3900      3903
      3903      3906      3907      3903      3906      3908      3903      3906      3909
      3904      3903      3905      3904      3903      3906      3905      3903      3906
      3906      3909      3910      3906      3909      3911      3906      3909      3912
      3907      3906      3908      3907      3906      3909      3908      3906      3909
      3909      3912      3913      3909      3912      3914      3909      3912      3915
      3910      3909      3911      3910      3909      3912      3911      3909      3912
      3913      3912      3914      3913      3912      3915      3914      3912      3915
      3916      3920      3921      3916      3920      3922      3916      3920      3923
      3917      3916      3918      3917      3916      3919      3917      3916      3920
      3918      3916      3919      3918      3916      3920      3919      3916      3920
      3920      3923      3924      3920      3923      3925      3920      3923      3930
      3921      3920      3922      3921      3920      3923      3922      3920      3923
      3923      3930      3926      3924      3923      3925      3924      3923      3930
      3925      3923      3930      3926      3929      3931      3927      3926      3928
      3927      3926      3929      3927      3926      3930      3928      3926      3929
      3928      3926      3930      3929      3926      3930      3929      3931      3932
      3929      3931      3933      3929      3931      3934      3931      3934      3935
      3931      3934      3936      3931      3934      3942      3932      3931      3933
      3932      3931      3934      3933      3931      3934      3934      3936      3937
      3934      3942      3943      3934      3942      3944      3934      3942      3945
      3935      3934      3936      3935      3934      3942      3936      3934      3942
      3936      3937      3938      3936      3937      3939      3937      3939      3940
      3937      3939      3941      3937      3939      3951      3938      3937      3939
      3939      3951      3952      3939      3951      3953      3939      3951      3954
      3940      3939      3941      3940      3939      3951      3941      3939      3951
      3942      3945      3946      3943      3942      3944      3943      3942      3945
      3944      3942      3945      3945      3946      3947      3945      3946      3948
      3946      3948      3949      3946      3948      3950      3946      3948      3995
      3947      3946      3948      3948      3995      3996      3948      3995      3997
      3948      3995      3998      3949      3948      3950      3949      3948      3995
      3950      3948      3995      3951      3954      3955      3951      3954      3956
      3951      3954      3957      3952      3951      3953      3952      3951      3954
      3953      3951      3954      3954      3957      3958      3954      3957      3959
      3954      3957      3960      3955      3954      3956      3955      3954      3957
      3956      3954      3957      3957      3960      3961      3957      3960      3962
      3957      3960      3963      3958      3957      3959      3958      3957      3960
      3959      3957      3960      3960      3963      3964      3960      3963      3965
      3960      3963      3966      3961      3960      3962      3961      3960      3963
      3962      3960      3963      3963      3966      3967      3963      3966      3968
      3963      3966      3969      3964      3963      3965      3964      3963      3966
      3965      3963      3966      3966      3969      3970      3966      3969      3971
      3966      3969      3974      3967      3966      3968      3967      3966      3969
      3968      3966      3969      3969      3971      3972      3969      3971      3973
      3969      3971      3974      3969      3974      3971      3969      3974      3975
      3969      3974      3976      3970      3969      3971      3970      3969      3974
      3971      3969      3974      3971      3974      3975      3971      3974      3976
      3972      3971      3973      3972      3971      3974      3973      3971      3974
      3974      3976      3977      3974      3976      3978      3974      3976      3979
      3975      3974      3976      3976      3979      3980      3976      3979      3981
      3976      3979      3982      3977      3976      3978      3977      3976      3979
      3978      3976      3979      3979      3982      3983      3979      3982      3984
      3979      3982      3985      3980      3979      3981      3980      3979      3982
      3981      3979      3982      3982      3985      3986      3982      3985      3987
      3982      3985      3988      3983      3982      3984      3983      3982      3985
      3984      3982      3985      3985      3988      3989      3985      3988      3990
      3985      3988      3991      3986      3985      3987      3986      3985      3988
      3987      3985      3988      3988      3991      3992      3988      3991      3993
      3988      3991      3994      3989      3988      3990      3989      3988      3991
      3990      3988      3991      3992      3991      3993      3992      3991      3994
      3993      3991      3994      3995      3998      3999      3995      3998      4000
      3995      3998      4001      3996      3995      3997      3996      3995      3998
      3997      3995      3998      3998      4001      4002      3998      4001      4003
      3998      4001      4004      3999      3998      4000      3999      3998      4001
      4000      3998      4001      4001      4004      4005      4001      4004      4006
      4001      4004      4007      4002      4001      4003      4002      4001      4004
      4003      4001      4004      4004      4007      4008      4004      4007      4009
      4004      4007      4010      4005      4004      4006      4005      4004      4007
      4006      4004      4007      4007      4010      4011      4007      4010      4012
      4007      4010      4013      4008      4007      4009      4008      4007      4010
      4009      4007      4010      4010      4013      4014      4010      4013      4015
      4010      4013      4016      4011      4010      4012      4011      4010      4013
      4012      4010      4013      4013      4016      4017      4013      4016      4018
      4013      4016      4019      4014      4013      4015      4014      4013      4016
      4015      4013      4016      4016      4019      4020      4016      4019      4021
      4016      4019      4022      4017      4016      4018      4017      4016      4019
      4018      4016      4019      4019      4022      4023      4019      4022      4024
      4019      4022      4025      4020      4019      4021      4020      4019      4022
      4021      4019      4022      4022      4025      4026      4022      4025      4027
      4022      4025      4028      4023      4022      4024      4023      4022      4025
      4024      4022      4025      4025      4028      4029      4025      4028      4030
      4025      4028      4031      4026      4025      4027      4026      4025      4028
      4027      4025      4028      4028      4031      4032      4028      4031      4033
      4028      4031      4034      4029      4028      4030      4029      4028      4031
      4030      4028      4031      4031      4034      4035      4031      4034      4036
      4031      4034      4037      4032      4031      4033      4032      4031      4034
      4033      4031      4034      4035      4034      4036      4035      4034      4037
      4036      4034      4037      4038      4041      4042      4038      4043      4044
      4038      4043      4045      4038      4043      4047      4039      4038      4040
      4039      4038      4041      4039      4038      4043      4040      4038      4041
      4040      4038      4043      4041      4038      4043      4043      4045      4046
      4043      4047      4048      4043      4047      4049      4043      4047      4054
      4044      4043      4045      4044      4043      4047      4045      4043      4047
      4047      4054      4050      4048      4047      4049      4048      4047      4054
      4049      4047      4054      4050      4053      4055      4051      4050      4052
      4051      4050      4053      4051      4050      4054      4052      4050      4053
      4052      4050      4054      4053      4050      4054      4053      4055      4056
      4053      4055      4057      4053      4055      4058      4055      4058      4059
      4055      4058      4060      4055      4058      4066      4056      4055      4057
      4056      4055      4058      4057      4055      4058      4058      4060      4061
      4058      4066      4067      4058      4066      4068      4058      4066      4069
      4059      4058      4060      4059      4058      4066      4060      4058      4066
      4060      4061      4062      4060      4061      4063      4061      4063      4064
      4061      4063      4065      4061      4063      4075      4062      4061      4063
      4063      4075      4076      4063      4075      4077      4063      4075      4078
      4064      4063      4065      4064      4063      4075      4065      4063      4075
      4066      4069      4070      4067      4066      4068      4067      4066      4069
      4068      4066      4069      4069      4070      4071      4069      4070      4072
      4070      4072      4073      4070      4072      4074      4070      4072      4116
      4071      4070      4072      4072      4116      4117      4072      4116      4118
      4072      4116      4119      4073      4072      4074      4073      4072      4116
      4074      4072      4116      4075      4078      4079      4075      4078      4080
      4075      4078      4081      4076      4075      4077      4076      4075      4078
      4077      4075      4078      4078      4081      4082      4078      4081      4083
      4078      4081      4084      4079      4078      4080      4079      4078      4081
      4080      4078      4081      4081      4084      4085      4081      4084      4086
      4081      4084      4087      4082      4081      4083      4082      4081      4084
      4083      4081      4084      4084      4087      4088      4084      4087      4089
      4084      4087      4090      4085      4084      4086      4085      4084      4087
      4086      4084      4087      4087      4090      4091      4087      4090      4092
      4087      4090      4093      4088      4087      4089      4088      4087      4090
      4089      4087      4090      4090      4093      4094      4090      4093      4095
      4091      4090      4092      4091      4090      4093      4092      4090      4093
      4093      4095      4096      4093      4095      4097      4094      4093      4095
      4095      4097      4098      4095      4097      4099      4095      4097      4100
      4096      4095      4097      4097      4100      4101      4097      4100      4102
      4097      4100      4103      4098      4097      4099      4098      4097      4100
      4099      4097      4100      4100      4103      4104      4100      4103      4105
      4100      4103      4106      4101      4100      4102      4101      4100      4103
      4102      4100      4103      4103      4106      4107      4103      4106      4108
      4103      4106      4109      4104      4103      4105      4104      4103      4106
      4105      4103      4106      4106      4109      4110      4106      4109      4111
      4106      4109      4112      4107      4106      4108      4107      4106      4109
      4108      4106      4109      4109      4112      4113      4109      4112      4114
      4109      4112      4115      4110      4109      4111      4110      4109      4112
      4111      4109      4112      4113      4112      4114      4113      4112      4115
      4114      4112      4115      4116      4119      4120      4116      4119      4121
      4116      4119      4122      4117      4116      4118      4117      4116      4119
      4118      4116      4119      4119      4122      4123      4119      4122      4124
      4119      4122      4125      4120      4119      4121      4120      4119      4122
      4121      4119      4122      4122      4125      4126      4122      4125      4127
      4122      4125      4128      4123      4122      4124      4123      4122      4125
      4124      4122      4125      4125      4128      4129      4125      4128      4130
      4125      4128      4131      4126      4125      4127      4126      4125      4128
      4127      4125      4128      4128      4131      4132      4128      4131      4133
      4128      4131      4134      4129      4128      4130      4129      4128      4131
      4130      4128      4131      4131      4134      4135      4131      4134      4136
      4131      4134      4137      4132      4131      4133      4132      4131      4134
      4133      4131      4134      4134      4137      4138      4134      4137      4139
      4134      4137      4140      4135      4134      4136      4135      4134      4137
      4136      4134      4137      4137      4140      4141      4137      4140      4142
      4137      4140      4143      4138      4137      4139      4138      4137      4140
      4139      4137      4140      4140      4143      4144      4140      4143      4145
      4140      4143      4146      4141      4140      4142      4141      4140      4143
      4142      4140      4143      4143      4146      4147      4143      4146      4148
      4143      4146      4149      4144      4143      4145      4144      4143      4146
      4145      4143      4146      4146      4149      4150      4146      4149      4151
      4146      4149      4152      4147      4146      4148      4147      4146      4149
      4148      4146      4149      4149      4152      4153      4149      4152      4154
      4149      4152      4155      4150      4149      4151      4150      4149      4152
      4151      4149      4152      4152      4155      4156      4152      4155      4157
      4152      4155      4158      4153      4152      4154      4153      4152      4155
      4154      4152      4155      4156      4155      4157      4156      4155      4158
      4157      4155      4158      4159      4163      4164      4159      4163      4165
      4159      4163      4166      4160      4159      4161      4160      4159      4162
      4160      4159      4163      4161      4159      4162      4161      4159      4163
      4162      4159      4163      4163      4166      4167      4163      4166      4168
      4163      4166      4173      4164      4163      4165      4164      4163      4166
      4165      4163      4166      4166      4173      4169      4167      4166      4168
      4167      4166      4173      4168      4166      4173      4169      4172      4174
      4170      4169      4171      4170      4169      4172      4170      4169      4173
      4171      4169      4172      4171      4169      4173      4172      4169      4173
      4172      4174      4175      4172      4174      4176      4172      4174      4177
      4174      4177      4178      4174      4177      4179      4174      4177      4185
      4175      4174      4176      4175      4174      4177      4176      4174      4177
      4177      4179      4180      4177      4185      4186      4177      4185      4187
      4177      4185      4188      4178      4177      4179      4178      4177      4185
      4179      4177      4185      4179      4180      4181      4179      4180      4182
      4180      4182      4183      4180      4182      4184      4180      4182      4194
      4181      4180      4182      4182      4194      4195      4182      4194      4196
      4182      4194      4197      4183      4182      4184      4183      4182      4194
      4184      4182      4194      4185      4188      4189      4186      4185      4187
      4186      4185      4188      4187      4185      4188      4188      4189      4190
      4188      4189      4191      4189      4191      4192      4189      4191      4193
      4189      4191      4238      4190      4189      4191      4191      4238      4239
      4191      4238      4240      4191      4238      4241      4192      4191      4193
      4192      4191      4238      4193      4191      4238      4194      4197      4198
      4194      4197      4199      4194      4197      4200      4195      4194      4196
      4195      4194      4197      4196      4194      4197      4197      4200      4201
      4197      4200      4202      4197      4200      4203      4198      4197      4199
      4198      4197      4200      4199      4197      4200      4200      4203      4204
      4200      4203      4205      4200      4203      4206      4201      4200      4202
      4201      4200      4203      4202      4200      4203      4203      4206      4207
      4203      4206      4208      4203      4206      4209      4204      4203      4205
      4204      4203      4206      4205      4203      4206      4206      4209      4210
      4206      4209      4211      4206      4209      4212      4207      4206      4208
      4207      4206      4209      4208      4206      4209      4209      4212      4213
      4209      4212      4214      4209      4212      4217      4210      4209      4211
      4210      4209      4212      4211      4209      4212      4212      4214      4215
      4212      4214      4216      4212      4214      4217      4212      4217      4214
      4212      4217      4218      4212      4217      4219      4213      4212      4214
      4213      4212      4217      4214      4212      4217      4214      4217      4218
      4214      4217      4219      4215      4214      4216      4215      4214      4217
      4216      4214      4217      4217      4219      4220      4217      4219      4221
      4217      4219      4222      4218      4217      4219      4219      4222      4223
      4219      4222      4224      4219      4222      4225      4220      4219      4221
      4220      4219      4222      4221      4219      4222      4222      4225      4226
      4222      4225      4227      4222      4225      4228      4223      4222      4224
      4223      4222      4225      4224      4222      4225      4225      4228      4229
      4225      4228      4230      4225      4228      4231      4226      4225      4227
      4226      4225      4228      4227      4225      4228      4228      4231      4232
      4228      4231      4233      4228      4231      4234      4229      4228      4230
      4229      4228      4231      4230      4228      4231      4231      4234      4235
      4231      4234      4236      4231      4234      4237      4232      4231      4233
      4232      4231      4234      4233      4231      4234      4235      4234      4236
      4235      4234      4237      4236      4234      4237      4238      4241      4242
      4238      4241      4243      4238      4241      4244      4239      4238      4240
      4239      4238      4241      4240      4238      4241      4241      4244      4245
      4241      4244      4246      4241      4244      4247      4242      4241      4243
      4242      4241      4244      4243      4241      4244      4244      4247      4248
      4244      4247      4249      4244      4247      4250      4245      4244      4246
      4245      4244      4247      4246      4244      4247      4247      4250      4251
      4247      4250      4252      4247      4250      4253      4248      4247      4249
      4248      4247      4250      4249      4247      4250      4250      4253      4254
      4250      4253      4255      4250      4253      4256      4251      4250      4252
      4251      4250      4253      4252      4250      4253      4253      4256      4257
      4253      4256      4258      4253      4256      4259      4254      4253      4255
      4254      4253      4256      4255      4253      4256      4256      4259      4260
      4256      4259      4261      4256      4259      4262      4257      4256      4258
      4257      4256      4259      4258      4256      4259      4259      4262      4263
      4259      4262      4264      4259      4262      4265      4260      4259      4261
      4260      4259      4262      4261      4259      4262      4262      4265      4266
      4262      4265      4267      4262      4265      4268      4263      4262      4264
      4263      4262      4265      4264      4262      4265      4265      4268      4269
      4265      4268      4270      4265      4268      4271      4266      4265      4267
      4266      4265      4268      4267      4265      4268      4268      4271      4272
      4268      4271      4273      4268      4271      4274      4269      4268      4270
      4269      4268      4271      4270      4268      4271      4271      4274      4275
      4271      4274      4276      4271      4274      4277      4272      4271      4273
      4272      4271      4274      4273      4271      4274      4274      4277      4278
      4274      4277      4279      4274      4277      4280      4275      4274      4276
      4275      4274      4277      4276      4274      4277      4278      4277      4279
      4278      4277      4280      4279      4277      4280      4281      4285      4286
      4281      4285      4287      4281      4285      4288      4282      4281      4283
      4282      4281      4284      4282      4281      4285      4283      4281      4284
      4283      4281      4285      4284      4281      4285      4285      4288      4289
      4285      4288      4290      4285      4288      4295      4286      4285      4287
      4286      4285      4288      4287      4285      4288      4288      4295      4291
      4289      4288      4290      4289      4288      4295      4290      4288      4295
      4291      4294      4296      4292      4291      4293      4292      4291      4294
      4292      4291      4295      4293      4291      4294      4293      4291      4295
      4294      4291      4295      4294      4296      4297      4294      4296      4298
      4294      4296      4299      4296      4299      4300      4296      4299      4301
      4296      4299      4307      4297      4296      4298      4297      4296      4299
      4298      4296      4299      4299      4301      4302      4299      4307      4308
      4299      4307      4309      4299      4307      4310      4300      4299      4301
      4300      4299      4307      4301      4299      4307      4301      4302      4303
      4301      4302      4304      4302      4304      4305      4302      4304      4306
      4302      4304      4316      4303      4302      4304      4304      4316      4317
      4304      4316      4318      4304      4316      4319      4305      4304      4306
      4305      4304      4316      4306      4304      4316      4307      4310      4311
      4308      4307      4309      4308      4307      4310      4309      4307      4310
      4310      4311      4312      4310      4311      4313      4311      4313      4314
      4311      4313      4315      4311      4313      4357      4312      4311      4313
      4313      4357      4358      4313      4357      4359      4313      4357      4360
      4314      4313      4315      4314      4313      4357      4315      4313      4357
      4316      4319      4320      4316      4319      4321      4316      4319      4322
      4317      4316      4318      4317      4316      4319      4318      4316      4319
      4319      4322      4323      4319      4322      4324      4319      4322      4325
      4320      4319      4321      4320      4319      4322      4321      4319      4322
      4322      4325      4326      4322      4325      4327      4322      4325      4328
      4323      4322      4324      4323      4322      4325      4324      4322      4325
      4325      4328      4329      4325      4328      4330      4325      4328      4331
      4326      4325      4327      4326      4325      4328      4327      4325      4328
      4328      4331      4332      4328      4331      4333      4328      4331      4334
      4329      4328      4330      4329      4328      4331      4330      4328      4331
      4331      4334      4335      4331      4334      4336      4332      4331      4333
      4332      4331      4334      4333      4331      4334      4334      4336      4337
      4334      4336      4338      4335      4334      4336      4336      4338      4339
      4336      4338      4340      4336      4338      4341      4337      4336      4338
      4338      4341      4342      4338      4341      4343      4338      4341      4344
      4339      4338      4340      4339      4338      4341      4340      4338      4341
      4341      4344      4345      4341      4344      4346      4341      4344      4347
      4342      4341      4343      4342      4341      4344      4343      4341      4344
      4344      4347      4348      4344      4347      4349      4344      4347      4350
      4345      4344      4346      4345      4344      4347      4346      4344      4347
      4347      4350      4351      4347      4350      4352      4347      4350      4353
      4348      4347      4349      4348      4347      4350      4349      4347      4350
      4350      4353      4354      4350      4353      4355      4350      4353      4356
      4351      4350      4352      4351      4350      4353      4352      4350      4353
      4354      4353      4355      4354      4353      4356      4355      4353      4356
      4357      4360      4361      4357      4360      4362      4357      4360      4363
      4358      4357      4359      4358      4357      4360      4359      4357      4360
      4360      4363      4364      4360      4363      4365      4360      4363      4366
      4361      4360      4362      4361      4360      4363      4362      4360      4363
      4363      4366      4367      4363      4366      4368      4363      4366      4369
      4364      4363      4365      4364      4363      4366      4365      4363      4366
      4366      4369      4370      4366      4369      4371      4366      4369      4372
      4367      4366      4368      4367      4366      4369      4368      4366      4369
      4369      4372      4373      4369      4372      4374      4369      4372      4375
      4370      4369      4371      4370      4369      4372      4371      4369      4372
      4372      4375      4376      4372      4375      4377      4373      4372      4374
      4373      4372      4375      4374      4372      4375      4375      4377      4378
      4375      4377      4379      4376      4375      4377      4377      4379      4380
      4377      4379      4381      4377      4379      4382      4378      4377      4379
      4379      4382      4383      4379      4382      4384      4379      4382      4385
      4380      4379      4381      4380      4379      4382      4381      4379      4382
      4382      4385      4386      4382      4385      4387      4382      4385      4388
      4383      4382      4384      4383      4382      4385      4384      4382      4385
      4385      4388      4389      4385      4388      4390      4385      4388      4391
      4386      4385      4387      4386      4385      4388      4387      4385      4388
      4388      4391      4392      4388      4391      4393      4388      4391      4394
      4389      4388      4390      4389      4388      4391      4390      4388      4391
      4391      4394      4395      4391      4394      4396      4391      4394      4397
      4392      4391      4393      4392      4391      4394      4393      4391      4394
      4394      4397      4398      4394      4397      4399      4394      4397      4400
      4395      4394      4396      4395      4394      4397      4396      4394      4397
      4397      4400      4401      4397      4400      4402      4397      4400      4403
      4398      4397      4399      4398      4397      4400      4399      4397      4400
      4401      4400      4402      4401      4400      4403      4402      4400      4403
      4404      4408      4409      4404      4408      4410      4404      4408      4411
      4405      4404      4406      4405      4404      4407      4405      4404      4408
      4406      4404      4407      4406      4404      4408      4407      4404      4408
      4408      4411      4412      4408      4411      4413      4408      4411      4418
      4409      4408      4410      4409      4408      4411      4410      4408      4411
      4411      4418      4414      4412      4411      4413      4412      4411      4418
      4413      4411      4418      4414      4417      4419      4415      4414      4416
      4415      4414      4417      4415      4414      4418      4416      4414      4417
      4416      4414      4418      4417      4414      4418      4417      4419      4420
      4417      4419      4421      4417      4419      4422      4419      4422      4423
      4419      4422      4424      4419      4422      4430      4420      4419      4421
      4420      4419      4422      4421      4419      4422      4422      4424      4425
      4422      4430      4431      4422      4430      4432      4422      4430      4433
      4423      4422      4424      4423      4422      4430      4424      4422      4430
      4424      4425      4426      4424      4425      4427      4425      4427      4428
      4425      4427      4429      4425      4427      4439      4426      4425      4427
      4427      4439      4440      4427      4439      4441      4427      4439      4442
      4428      4427      4429      4428      4427      4439      4429      4427      4439
      4430      4433      4434      4431      4430      4432      4431      4430      4433
      4432      4430      4433      4433      4434      4435      4433      4434      4436
      4434      4436      4437      4434      4436      4438      4434      4436      4483
      4435      4434      4436      4436      4483      4484      4436      4483      4485
      4436      4483      4486      4437      4436      4438      4437      4436      4483
      4438      4436      4483      4439      4442      4443      4439      4442      4444
      4439      4442      4445      4440      4439      4441      4440      4439      4442
      4441      4439      4442      4442      4445      4446      4442      4445      4447
      4442      4445      4448      4443      4442      4444      4443      4442      4445
      4444      4442      4445      4445      4448      4449      4445      4448      4450
      4445      4448      4451      4446      4445      4447      4446      4445      4448
      4447      4445      4448      4448      4451      4452      4448      4451      4453
      4448      4451      4454      4449      4448      4450      4449      4448      4451
      4450      4448      4451      4451      4454      4455      4451      4454      4456
      4451      4454      4457      4452      4451      4453      4452      4451      4454
      4453      4451      4454      4454      4457      4458      4454      4457      4459
      4454      4457      4462      4455      4454      4456      4455      4454      4457
      4456      4454      4457      4457      4459      4460      4457      4459      4461
      4457      4459      4462      4457      4462      4459      4457      4462      4463
      4457      4462      4464      4458      4457      4459      4458      4457      4462
      4459      4457      4462      4459      4462      4463      4459      4462      4464
      4460      4459      4461      4460      4459      4462      4461      4459      4462
      4462      4464      4465      4462      4464      4466      4462      4464      4467
      4463      4462      4464      4464      4467      4468      4464      4467      4469
      4464      4467      4470      4465      4464      4466      4465      4464      4467
      4466      4464      4467      4467      4470      4471      4467      4470      4472
      4467      4470      4473      4468      4467      4469      4468      4467      4470
      4469      4467      4470      4470      4473      4474      4470      4473      4475
      4470      4473      4476      4471      4470      4472      4471      4470      4473
      4472      4470      4473      4473      4476      4477      4473      4476      4478
      4473      4476      4479      4474      4473      4475      4474      4473      4476
      4475      4473      4476      4476      4479      4480      4476      4479      4481
      4476      4479      4482      4477      4476      4478      4477      4476      4479
      4478      4476      4479      4480      4479      4481      4480      4479      4482
      4481      4479      4482      4483      4486      4487      4483      4486      4488
      4483      4486      4489      4484      4483      4485      4484      4483      4486
      4485      4483      4486      4486      4489      4490      4486      4489      4491
      4486      4489      4492      4487      4486      4488      4487      4486      4489
      4488      4486      4489      4489      4492      4493      4489      4492      4494
      4489      4492      4495      4490      4489      4491      4490      4489      4492
      4491      4489      4492      4492      4495      4496      4492      4495      4497
      4492      4495      4498      4493      4492      4494      4493      4492      4495
      4494      4492      4495      4495      4498      4499      4495      4498      4500
      4495      4498      4501      4496      4495      4497      4496      4495      4498
      4497      4495      4498      4498      4501      4502      4498      4501      4503
      4498      4501      4504      4499      4498      4500      4499      4498      4501
      4500      4498      4501      4501      4504      4505      4501      4504      4506
      4501      4504      4507      4502      4501      4503      4502      4501      4504
      4503      4501      4504      4504      4507      4508      4504      4507      4509
      4504      4507      4510      4505      4504      4506      4505      4504      4507
      4506      4504      4507      4507      4510      4511      4507      4510      4512
      4507      4510      4513      4508      4507      4509      4508      4507      4510
      4509      4507      4510      4510      4513      4514      4510      4513      4515
      4510      4513      4516      4511      4510      4512      4511      4510      4513
      4512      4510      4513      4513      4516      4517      4513      4516      4518
      4513      4516      4519      4514      4513      4515      4514      4513      4516
      4515      4513      4516      4516      4519      4520      4516      4519      4521
      4516      4519      4522      4517      4516      4518      4517      4516      4519
      4518      4516      4519      4519      4522      4523      4519      4522      4524
      4519      4522      4525      4520      4519      4521      4520      4519      4522
      4521      4519      4522      4523      4522      4524      4523      4522      4525
      4524      4522      4525      4526      4530      4531      4526      4530      4532
      4526      4530      4533      4527      4526      4528      4527      4526      4529
      4527      4526      4530      4528      4526      4529      4528      4526      4530
      4529      4526      4530      4530      4533      4534      4530      4533      4535
      4530      4533      4540      4531      4530      4532      4531      4530      4533
      4532      4530      4533      4533      4540      4536      4534      4533      4535
      4534      4533      4540      4535      4533      4540      4536      4539      4541
      4537      4536      4538      4537      4536      4539      4537      4536      4540
      4538      4536      4539      4538      4536      4540      4539      4536      4540
      4539      4541      4542      4539      4541      4543      4539      4541      4544
      4541      4544      4545      4541      4544      4546      4541      4544      4552
      4542      4541      4543      4542      4541      4544      4543      4541      4544
      4544      4546      4547      4544      4552      4553      4544      4552      4554
      4544      4552      4555      4545      4544      4546      4545      4544      4552
      4546      4544      4552      4546      4547      4548      4546      4547      4549
      4547      4549      4550      4547      4549      4551      4547      4549      4561
      4548      4547      4549      4549      4561      4562      4549      4561      4563
      4549      4561      4564      4550      4549      4551      4550      4549      4561
      4551      4549      4561      4552      4555      4556      4553      4552      4554
      4553      4552      4555      4554      4552      4555      4555      4556      4557
      4555      4556      4558      4556      4558      4559      4556      4558      4560
      4556      4558      4602      4557      4556      4558      4558      4602      4603
      4558      4602      4604      4558      4602      4605      4559      4558      4560
      4559      4558      4602      4560      4558      4602      4561      4564      4565
      4561      4564      4566      4561      4564      4567      4562      4561      4563
      4562      4561      4564      4563      4561      4564      4564      4567      4568
      4564      4567      4569      4564      4567      4570      4565      4564      4566
      4565      4564      4567      4566      4564      4567      4567      4570      4571
      4567      4570      4572      4567      4570      4573      4568      4567      4569
      4568      4567      4570      4569      4567      4570      4570      4573      4574
      4570      4573      4575      4570      4573      4576      4571      4570      4572
      4571      4570      4573      4572      4570      4573      4573      4576      4577
      4573      4576      4578      4573      4576      4579      4574      4573      4575
      4574      4573      4576      4575      4573      4576      4576      4579      4580
      4576      4579      4581      4577      4576      4578      4577      4576      4579
      4578      4576      4579      4579      4581      4582      4579      4581      4583
      4580      4579      4581      4581      4583      4584      4581      4583      4585
      4581      4583      4586      4582      4581      4583      4583      4586      4587
      4583      4586      4588      4583      4586      4589      4584      4583      4585
      4584      4583      4586      4585      4583      4586      4586      4589      4590
      4586      4589      4591      4586      4589      4592      4587      4586      4588
      4587      4586      4589      4588      4586      4589      4589      4592      4593
      4589      4592      4594      4589      4592      4595      4590      4589      4591
      4590      4589      4592      4591      4589      4592      4592      4595      4596
      4592      4595      4597      4592      4595      4598      4593      4592      4594
      4593      4592      4595      4594      4592      4595      4595      4598      4599
      4595      4598      4600      4595      4598      4601      4596      4595      4597
      4596      4595      4598      4597      4595      4598      4599      4598      4600
      4599      4598      4601      4600      4598      4601      4602      4605      4606
      4602      4605      4607      4602      4605      4608      4603      4602      4604
      4603      4602      4605      4604      4602      4605      4605      4608      4609
      4605      4608      4610      4605      4608      4611      4606      4605      4607
      4606      4605      4608      4607      4605      4608      4608      4611      4612
      4608      4611      4613      4608      4611      4614      4609      4608      4610
      4609      4608      4611      4610      4608      4611      4611      4614      4615
      4611      4614      4616      4611      4614      4617      4612      4611      4613
      4612      4611      4614      4613      4611      4614      4614      4617      4618
      4614      4617      4619      4614      4617      4620      4615      4614      4616
      4615      4614      4617      4616      4614      4617      4617      4620      4621
      4617      4620      4622      4618      4617      4619      4618      4617      4620
      4619      4617      4620      4620      4622      4623      4620      4622      4624
      4621      4620      4622      4622      4624      4625      4622      4624      4626
      4622      4624      4627      4623      4622      4624      4624      4627      4628
      4624      4627      4629      4624      4627      4630      4625      4624      4626
      4625      4624      4627      4626      4624      4627      4627      4630      4631
      4627      4630      4632      4627      4630      4633      4628      4627      4629
      4628      4627      4630      4629      4627      4630      4630      4633      4634
      4630      4633      4635      4630      4633      4636      4631      4630      4632
      4631      4630      4633      4632      4630      4633      4633      4636      4637
      4633      4636      4638      4633      4636      4639      4634      4633      4635
      4634      4633      4636      4635      4633      4636      4636      4639      4640
      4636      4639      4641      4636      4639      4642      4637      4636      4638
      4637      4636      4639      4638      4636      4639      4639      4642      4643
      4639      4642      4644      4639      4642      4645      4640      4639      4641
      4640      4639      4642      4641      4639      4642      4642      4645      4646
      4642      4645      4647      4642      4645      4648      4643      4642      4644
      4643      4642      4645      4644      4642      4645      4646      4645      4647
      4646      4645      4648      4647      4645      4648      4649      4653      4654
      4649      4653      4655      4649      4653      4656      4650      4649      4651
      4650      4649      4652      4650      4649      4653      4651      4649      4652
      4651      4649      4653      4652      4649      4653      4653      4656      4657
      4653      4656      4658      4653      4656      4663      4654      4653      4655
      4654      4653      4656      4655      4653      4656      4656      4663      4659
      4657      4656      4658      4657      4656      4663      4658      4656      4663
      4659      4662      4664      4660      4659      4661      4660      4659      4662
      4660      4659      4663      4661      4659      4662      4661      4659      4663
      4662      4659      4663      4662      4664      4665      4662      4664      4666
      4662      4664      4667      4664      4667      4668      4664      4667      4669
      4664      4667      4675      4665      4664      4666      4665      4664      4667
      4666      4664      4667      4667      4669      4670      4667      4675      4676
      4667      4675      4677      4667      4675      4678      4668      4667      4669
      4668      4667      4675      4669      4667      4675      4669      4670      4671
      4669      4670      4672      4670      4672      4673      4670      4672      4674
      4670      4672      4684      4671      4670      4672      4672      4684      4685
      4672      4684      4686      4672      4684      4687      4673      4672      4674
      4673      4672      4684      4674      4672      4684      4675      4678      4679
      4676      4675      4677      4676      4675      4678      4677      4675      4678
      4678      4679      4680      4678      4679      4681      4679      4681      4682
      4679      4681      4683      4679      4681      4728      4680      4679      4681
      4681      4728      4729      4681      4728      4730      4681      4728      4731
      4682      4681      4683      4682      4681      4728      4683      4681      4728
      4684      4687      4688      4684      4687      4689      4684      4687      4690
      4685      4684      4686      4685      4684      4687      4686      4684      4687
      4687      4690      4691      4687      4690      4692      4687      4690      4693
      4688      4687      4689      4688      4687      4690      4689      4687      4690
      4690      4693      4694      4690      4693      4695      4690      4693      4696
      4691      4690      4692      4691      4690      4693      4692      4690      4693
      4693      4696      4697      4693      4696      4698      4693      4696      4699
      4694      4693      4695      4694      4693      4696      4695      4693      4696
      4696      4699      4700      4696      4699      4701      4696      4699      4702
      4697      4696      4698      4697      4696      4699      4698      4696      4699
      4699      4702      4703      4699      4702      4704      4699      4702      4707
      4700      4699      4701      4700      4699      4702      4701      4699      4702
      4702      4704      4705      4702      4704      4706      4702      4704      4707
      4702      4707      4704      4702      4707      4708      4702      4707      4709
      4703      4702      4704      4703      4702      4707      4704      4702      4707
      4704      4707      4708      4704      4707      4709      4705      4704      4706
      4705      4704      4707      4706      4704      4707      4707      4709      4710
      4707      4709      4711      4707      4709      4712      4708      4707      4709
      4709      4712      4713      4709      4712      4714      4709      4712      4715
      4710      4709      4711      4710      4709      4712      4711      4709      4712
      4712      4715      4716      4712      4715      4717      4712      4715      4718
      4713      4712      4714      4713      4712      4715      4714      4712      4715
      4715      4718      4719      4715      4718      4720      4715      4718      4721
      4716      4715      4717      4716      4715      4718      4717      4715      4718
      4718      4721      4722      4718      4721      4723      4718      4721      4724
      4719      4718      4720      4719      4718      4721      4720      4718      4721
      4721      4724      4725      4721      4724      4726      4721      4724      4727
      4722      4721      4723      4722      4721      4724      4723      4721      4724
      4725      4724      4726      4725      4724      4727      4726      4724      4727
      4728      4731      4732      4728      4731      4733      4728      4731      4734
      4729      4728      4730      4729      4728      4731      4730      4728      4731
      4731      4734      4735      4731      4734      4736      4731      4734      4737
      4732      4731      4733      4732      4731      4734      4733      4731      4734
      4734      4737      4738      4734      4737      4739      4734      4737      4740
      4735      4734      4736      4735      4734      4737      4736      4734      4737
      4737      4740      4741      4737      4740      4742      4737      4740      4743
      4738      4737      4739      4738      4737      4740      4739      4737      4740
      4740      4743      4744      4740      4743      4745      4740      4743      4746
      4741      4740      4742      4741      4740      4743      4742      4740      4743
      4743      4746      4747      4743      4746      4748      4743      4746      4749
      4744      4743      4745      4744      4743      4746      4745      4743      4746
      4746      4749      4750      4746      4749      4751      4746      4749      4752
      4747      4746      4748      4747      4746      4749      4748      4746      4749
      4749      4752      4753      4749      4752      4754      4749      4752      4755
      4750      4749      4751      4750      4749      4752      4751      4749      4752
      4752      4755      4756      4752      4755      4757      4752      4755      4758
      4753      4752      4754      4753      4752      4755      4754      4752      4755
      4755      4758      4759      4755      4758      4760      4755      4758      4761
      4756      4755      4757      4756      4755      4758      4757      4755      4758
      4758      4761      4762      4758      4761      4763      4758      4761      4764
      4759      4758      4760      4759      4758      4761      4760      4758      4761
      4761      4764      4765      4761      4764      4766      4761      4764      4767
      4762      4761      4763      4762      4761      4764      4763      4761      4764
      4764      4767      4768      4764      4767      4769      4764      4767      4770
      4765      4764      4766      4765      4764      4767      4766      4764      4767
      4768      4767      4769      4768      4767      4770      4769      4767      4770
      4771      4775      4776      4771      4775      4777      4771      4775      4778
      4772      4771      4773      4772      4771      4774      4772      4771      4775
      4773      4771      4774      4773      4771      4775      4774      4771      4775
      4775      4778      4779      4775      4778      4780      4775      4778      4785
      4776      4775      4777      4776      4775      4778      4777      4775      4778
      4778      4785      4781      4779      4778      4780      4779      4778      4785
      4780      4778      4785      4781      4784      4786      4782      4781      4783
      4782      4781      4784      4782      4781      4785      4783      4781      4784
      4783      4781      4785      4784      4781      4785      4784      4786      4787
      4784      4786      4788      4784      4786      4789      4786      4789      4790
      4786      4789      4791      4786      4789      4797      4787      4786      4788
      4787      4786      4789      4788      4786      4789      4789      4791      4792
      4789      4797      4798      4789      4797      4799      4789      4797      4800
      4790      4789      4791      4790      4789      4797      4791      4789      4797
      4791      4792      4793      4791      4792      4794      4792      4794      4795
      4792      4794      4796      4792      4794      4806      4793      4792      4794
      4794      4806      4807      4794      4806      4808      4794      4806      4809
      4795      4794      4796      4795      4794      4806      4796      4794      4806
      4797      4800      4801      4798      4797      4799      4798      4797      4800
      4799      4797      4800      4800      4801      4802      4800      4801      4803
      4801      4803      4804      4801      4803      4805      4801      4803      4850
      4802      4801      4803      4803      4850      4851      4803      4850      4852
      4803      4850      4853      4804      4803      4805      4804      4803      4850
      4805      4803      4850      4806      4809      4810      4806      4809      4811
      4806      4809      4812      4807      4806      4808      4807      4806      4809
      4808      4806      4809      4809      4812      4813      4809      4812      4814
      4809      4812      4815      4810      4809      4811      4810      4809      4812
      4811      4809      4812      4812      4815      4816      4812      4815      4817
      4812      4815      4818      4813      4812      4814      4813      4812      4815
      4814      4812      4815      4815      4818      4819      4815      4818      4820
      4815      4818      4821      4816      4815      4817      4816      4815      4818
      4817      4815      4818      4818      4821      4822      4818      4821      4823
      4818      4821      4824      4819      4818      4820      4819      4818      4821
      4820      4818      4821      4821      4824      4825      4821      4824      4826
      4821      4824      4829      4822      4821      4823      4822      4821      4824
      4823      4821      4824      4824      4826      4827      4824      4826      4828
      4824      4826      4829      4824      4829      4826      4824      4829      4830
      4824      4829      4831      4825      4824      4826      4825      4824      4829
      4826      4824      4829      4826      4829      4830      4826      4829      4831
      4827      4826      4828      4827      4826      4829      4828      4826      4829
      4829      4831      4832      4829      4831      4833      4829      4831      4834
      4830      4829      4831      4831      4834      4835      4831      4834      4836
      4831      4834      4837      4832      4831      4833      4832      4831      4834
      4833      4831      4834      4834      4837      4838      4834      4837      4839
      4834      4837      4840      4835      4834      4836      4835      4834      4837
      4836      4834      4837      4837      4840      4841      4837      4840      4842
      4837      4840      4843      4838      4837      4839      4838      4837      4840
      4839      4837      4840      4840      4843      4844      4840      4843      4845
      4840      4843      4846      4841      4840      4842      4841      4840      4843
      4842      4840      4843      4843      4846      4847      4843      4846      4848
      4843      4846      4849      4844      4843      4845      4844      4843      4846
      4845      4843      4846      4847      4846      4848      4847      4846      4849
      4848      4846      4849      4850      4853      4854      4850      4853      4855
      4850      4853      4856      4851      4850      4852      4851      4850      4853
      4852      4850      4853      4853      4856      4857      4853      4856      4858
      4853      4856      4859      4854      4853      4855      4854      4853      4856
      4855      4853      4856      4856      4859      4860      4856      4859      4861
      4856      4859      4862      4857      4856      4858      4857      4856      4859
      4858      4856      4859      4859      4862      4863      4859      4862      4864
      4859      4862      4865      4860      4859      4861      4860      4859      4862
      4861      4859      4862      4862      4865      4866      4862      4865      4867
      4862      4865      4868      4863      4862      4864      4863      4862      4865
      4864      4862      4865      4865      4868      4869      4865      4868      4870
      4865      4868      4871      4866      4865      4867      4866      4865      4868
      4867      4865      4868      4868      4871      4872      4868      4871      4873
      4868      4871      4874      4869      4868      4870      4869      4868      4871
      4870      4868      4871      4871      4874      4875      4871      4874      4876
      4871      4874      4877      4872      4871      4873      4872      4871      4874
      4873      4871      4874      4874      4877      4878      4874      4877      4879
      4874      4877      4880      4875      4874      4876      4875      4874      4877
      4876      4874      4877      4877      4880      4881      4877      4880      4882
      4877      4880      4883      4878      4877      4879      4878      4877      4880
      4879      4877      4880      4880      4883      4884      4880      4883      4885
      4880      4883      4886      4881      4880      4882      4881      4880      4883
      4882      4880      4883      4883      4886      4887      4883      4886      4888
      4883      4886      4889      4884      4883      4885      4884      4883      4886
      4885      4883      4886      4886      4889      4890      4886      4889      4891
      4886      4889      4892      4887      4886      4888      4887      4886      4889
      4888      4886      4889      4890      4889      4891      4890      4889      4892
      4891      4889      4892      4893      4897      4898      4893      4897      4899
      4893      4897      4900      4894      4893      4895      4894      4893      4896
      4894      4893      4897      4895      4893      4896      4895      4893      4897
      4896      4893      4897      4897      4900      4901      4897      4900      4902
      4897      4900      4907      4898      4897      4899      4898      4897      4900
      4899      4897      4900      4900      4907      4903      4901      4900      4902
      4901      4900      4907      4902      4900      4907      4903      4906      4908
      4904      4903      4905      4904      4903      4906      4904      4903      4907
      4905      4903      4906      4905      4903      4907      4906      4903      4907
      4906      4908      4909      4906      4908      4910      4906      4908      4911
      4908      4911      4912      4908      4911      4913      4908      4911      4919
      4909      4908      4910      4909      4908      4911      4910      4908      4911
      4911      4913      4914      4911      4919      4920      4911      4919      4921
      4911      4919      4922      4912      4911      4913      4912      4911      4919
      4913      4911      4919      4913      4914      4915      4913      4914      4916
      4914      4916      4917      4914      4916      4918      4914      4916      4928
      4915      4914      4916      4916      4928      4929      4916      4928      4930
      4916      4928      4931      4917      4916      4918      4917      4916      4928
      4918      4916      4928      4919      4922      4923      4920      4919      4921
      4920      4919      4922      4921      4919      4922      4922      4923      4924
      4922      4923      4925      4923      4925      4926      4923      4925      4927
      4923      4925      4972      4924      4923      4925      4925      4972      4973
      4925      4972      4974      4925      4972      4975      4926      4925      4927
      4926      4925      4972      4927      4925      4972      4928      4931      4932
      4928      4931      4933      4928      4931      4934      4929      4928      4930
      4929      4928      4931      4930      4928      4931      4931      4934      4935
      4931      4934      4936      4931      4934      4937      4932      4931      4933
      4932      4931      4934      4933      4931      4934      4934      4937      4938
      4934      4937      4939      4934      4937      4940      4935      4934      4936
      4935      4934      4937      4936      4934      4937      4937      4940      4941
      4937      4940      4942      4937      4940      4943      4938      4937      4939
      4938      4937      4940      4939      4937      4940      4940      4943      4944
      4940      4943      4945      4940      4943      4946      4941      4940      4942
      4941      4940      4943      4942      4940      4943      4943      4946      4947
      4943      4946      4948      4943      4946      4951      4944      4943      4945
      4944      4943      4946      4945      4943      4946      4946      4948      4949
      4946      4948      4950      4946      4948      4951      4946      4951      4948
      4946      4951      4952      4946      4951      4953      4947      4946      4948
      4947      4946      4951      4948      4946      4951      4948      4951      4952
      4948      4951      4953      4949      4948      4950      4949      4948      4951
      4950      4948      4951      4951      4953      4954      4951      4953      4955
      4951      4953      4956      4952      4951      4953      4953      4956      4957
      4953      4956      4958      4953      4956      4959      4954      4953      4955
      4954      4953      4956      4955      4953      4956      4956      4959      4960
      4956      4959      4961      4956      4959      4962      4957      4956      4958
      4957      4956      4959      4958      4956      4959      4959      4962      4963
      4959      4962      4964      4959      4962      4965      4960      4959      4961
      4960      4959      4962      4961      4959      4962      4962      4965      4966
      4962      4965      4967      4962      4965      4968      4963      4962      4964
      4963      4962      4965      4964      4962      4965      4965      4968      4969
      4965      4968      4970      4965      4968      4971      4966      4965      4967
      4966      4965      4968      4967      4965      4968      4969      4968      4970
      4969      4968      4971      4970      4968      4971      4972      4975      4976
      4972      4975      4977      4972      4975      4978      4973      4972      4974
      4973      4972      4975      4974      4972      4975      4975      4978      4979
      4975      4978      4980      4975      4978      4981      4976      4975      4977
      4976      4975      4978      4977      4975      4978      4978      4981      4982
      4978      4981      4983      4978      4981      4984      4979      4978      4980
      4979      4978      4981      4980      4978      4981      4981      4984      4985
      4981      4984      4986      4981      4984      4987      4982      4981      4983
      4982      4981      4984      4983      4981      4984      4984      4987      4988
      4984      4987      4989      4984      4987      4990      4985      4984      4986
      4985      4984      4987      4986      4984      4987      4987      4990      4991
      4987      4990      4992      4987      4990      4993      4988      4987      4989
      4988      4987      4990      4989      4987      4990      4990      4993      4994
      4990      4993      4995      4990      4993      4996      4991      4990      4992
      4991      4990      4993      4992      4990      4993      4993      4996      4997
      4993      4996      4998      4993      4996      4999      4994      4993      4995
      4994      4993      4996      4995      4993      4996      4996      4999      5000
      4996      4999      5001      4996      4999      5002      4997      4996      4998
      4997      4996      4999      4998      4996      4999      4999      5002      5003
      4999      5002      5004      4999      5002      5005      5000      4999      5001
      5000      4999      5002      5001      4999      5002      5002      5005      5006
      5002      5005      5007      5002      5005      5008      5003      5002      5004
      5003      5002      5005      5004      5002      5005      5005      5008      5009
      5005      5008      5010      5005      5008      5011      5006      5005      5007
      5006      5005      5008      5007      5005      5008      5008      5011      5012
      5008      5011      5013      5008      5011      5014      5009      5008      5010
      5009      5008      5011      5010      5008      5011      5012      5011      5013
      5012      5011      5014      5013      5011      5014      5015      5021      5018
      5015      5026      5027      5015      5026      5028      5015      5026      5030
      5016      5015      5017      5016      5015      5021      5016      5015      5026
      5017      5015      5021      5017      5015      5026      5018      5022      5023
      5019      5018      5020      5019      5018      5021      5019      5018      5022
      5020      5018      5021      5020      5018      5022      5021      5015      5026
      5021      5018      5022      5022      5023      5024      5022      5023      5025
      5022      5023      5058      5023      5058      5059      5023      5058      5060
      5023      5058      5066      5024      5023      5025      5024      5023      5058
      5025      5023      5058      5026      5028      5029      5026      5030      5031
      5026      5030      5032      5026      5030      5036      5027      5026      5028
      5027      5026      5030      5028      5026      5030      5030      5036      5033
      5031      5030      5032      5031      5030      5036      5032      5030      5036
      5033      5037      5038      5034      5033      5035      5034      5033      5036
      5034      5033      5037      5035      5033      5036      5035      5033      5037
      5036      5033      5037      5037      5038      5039      5037      5038      5040
      5037      5038      5041      5038      5041      5042      5038      5041      5043
      5038      5041      5049      5039      5038      5040      5039      5038      5041
      5040      5038      5041      5041      5043      5044      5041      5049      5050
      5041      5049      5051      5041      5049      5052      5042      5041      5043
      5042      5041      5049      5043      5041      5049      5043      5044      5045
      5043      5044      5046      5044      5046      5047      5044      5046      5048
      5044      5046      5075      5045      5044      5046      5046      5075      5076
      5046      5075      5077      5046      5075      5078      5047      5046      5048
      5047      5046      5075      5048      5046      5075      5049      5052      5053
      5050      5049      5051      5050      5049      5052      5051      5049      5052
      5052      5053      5054      5052      5053      5055      5053      5055      5056
      5053      5055      5057      5053      5055      5122      5054      5053      5055
      5055      5122      5123      5055      5122      5124      5055      5122      5125
      5056      5055      5057      5056      5055      5122      5057      5055      5122
      5058      5060      5061      5058      5066      5067      5058      5066      5068
      5058      5066      5069      5059      5058      5060      5059      5058      5066
      5060      5058      5066      5060      5061      5062      5060      5061      5063
      5061      5063      5064      5061      5063      5065      5061      5063      5165
      5062      5061      5063      5063      5165      5166      5063      5165      5167
      5063      5165      5168      5064      5063      5065      5064      5063      5165
      5065      5063      5165      5066      5069      5070      5067      5066      5068
      5067      5066      5069      5068      5066      5069      5069      5070      5071
      5069      5070      5072      5070      5072      5073      5070      5072      5074
      5070      5072      5212      5071      5070      5072      5072      5212      5213
      5072      5212      5214      5072      5212      5215      5073      5072      5074
      5073      5072      5212      5074      5072      5212      5075      5078      5079
      5075      5078      5080      5075      5078      5081      5076      5075      5077
      5076      5075      5078      5077      5075      5078      5078      5081      5082
      5078      5081      5083      5078      5081      5084      5079      5078      5080
      5079      5078      5081      5080      5078      5081      5081      5084      5085
      5081      5084      5086      5081      5084      5087      5082      5081      5083
      5082      5081      5084      5083      5081      5084      5084      5087      5088
      5084      5087      5089      5084      5087      5090      5085      5084      5086
      5085      5084      5087      5086      5084      5087      5087      5090      5091
      5087      5090      5092      5087      5090      5093      5088      5087      5089
      5088      5087      5090      5089      5087      5090      5090      5093      5094
      5090      5093      5095      5090      5093      5096      5091      5090      5092
      5091      5090      5093      5092      5090      5093      5093      5096      5097
      5093      5096      5098      5093      5096      5099      5094      5093      5095
      5094      5093      5096      5095      5093      5096      5096      5099      5100
      5096      5099      5101      5097      5096      5098      5097      5096      5099
      5098      5096      5099      5099      5101      5102      5099      5101      5103
      5100      5099      5101      5101      5103      5104      5101      5103      5105
      5101      5103      5106      5102      5101      5103      5103      5106      5107
      5103      5106      5108      5103      5106      5109      5104      5103      5105
      5104      5103      5106      5105      5103      5106      5106      5109      5110
      5106      5109      5111      5106      5109      5112      5107      5106      5108
      5107      5106      5109      5108      5106      5109      5109      5112      5113
      5109      5112      5114      5109      5112      5115      5110      5109      5111
      5110      5109      5112      5111      5109      5112      5112      5115      5116
      5112      5115      5117      5112      5115      5118      5113      5112      5114
      5113      5112      5115      5114      5112      5115      5115      5118      5119
      5115      5118      5120      5115      5118      5121      5116      5115      5117
      5116      5115      5118      5117      5115      5118      5119      5118      5120
      5119      5118      5121      5120      5118      5121      5122      5125      5126
      5122      5125      5127      5122      5125      5128      5123      5122      5124
      5123      5122      5125      5124      5122      5125      5125      5128      5129
      5125      5128      5130      5125      5128      5131      5126      5125      5127
      5126      5125      5128      5127      5125      5128      5128      5131      5132
      5128      5131      5133      5128      5131      5134      5129      5128      5130
      5129      5128      5131      5130      5128      5131      5131      5134      5135
      5131      5134      5136      5131      5134      5137      5132      5131      5133
      5132      5131      5134      5133      5131      5134      5134      5137      5138
      5134      5137      5139      5134      5137      5140      5135      5134      5136
      5135      5134      5137      5136      5134      5137      5137      5140      5141
      5137      5140      5142      5137      5140      5143      5138      5137      5139
      5138      5137      5140      5139      5137      5140      5140      5143      5144
      5140      5143      5145      5140      5143      5146      5141      5140      5142
      5141      5140      5143      5142      5140      5143      5143      5146      5147
      5143      5146      5148      5143      5146      5149      5144      5143      5145
      5144      5143      5146      5145      5143      5146      5146      5149      5150
      5146      5149      5151      5146      5149      5152      5147      5146      5148
      5147      5146      5149      5148      5146      5149      5149      5152      5153
      5149      5152      5154      5149      5152      5155      5150      5149      5151
      5150      5149      5152      5151      5149      5152      5152      5155      5156
      5152      5155      5157      5152      5155      5158      5153      5152      5154
      5153      5152      5155      5154      5152      5155      5155      5158      5159
      5155      5158      5160      5155      5158      5161      5156      5155      5157
      5156      5155      5158      5157      5155      5158      5158      5161      5162
      5158      5161      5163      5158      5161      5164      5159      5158      5160
      5159      5158      5161      5160      5158      5161      5162      5161      5163
      5162      5161      5164      5163      5161      5164      5165      5168      5169
      5165      5168      5170      5165      5168      5171      5166      5165      5167
      5166      5165      5168      5167      5165      5168      5168      5171      5172
      5168      5171      5173      5168      5171      5174      5169      5168      5170
      5169      5168      5171      5170      5168      5171      5171      5174      5175
      5171      5174      5176      5171      5174      5177      5172      5171      5173
      5172      5171      5174      5173      5171      5174      5174      5177      5178
      5174      5177      5179      5174      5177      5180      5175      5174      5176
      5175      5174      5177      5176      5174      5177      5177      5180      5181
      5177      5180      5182      5177      5180      5183      5178      5177      5179
      5178      5177      5180      5179      5177      5180      5180      5183      5184
      5180      5183      5185      5180      5183      5186      5181      5180      5182
      5181      5180      5183      5182      5180      5183      5183      5186      5187
      5183      5186      5188      5183      5186      5189      5184      5183      5185
      5184      5183      5186      5185      5183      5186      5186      5189      5190
      5186      5189      5191      5187      5186      5188      5187      5186      5189
      5188      5186      5189      5189      5191      5192      5189      5191      5193
      5190      5189      5191      5191      5193      5194      5191      5193      5195
      5191      5193      5196      5192      5191      5193      5193      5196      5197
      5193      5196      5198      5193      5196      5199      5194      5193      5195
      5194      5193      5196      5195      5193      5196      5196      5199      5200
      5196      5199      5201      5196      5199      5202      5197      5196      5198
      5197      5196      5199      5198      5196      5199      5199      5202      5203
      5199      5202      5204      5199      5202      5205      5200      5199      5201
      5200      5199      5202      5201      5199      5202      5202      5205      5206
      5202      5205      5207      5202      5205      5208      5203      5202      5204
      5203      5202      5205      5204      5202      5205      5205      5208      5209
      5205      5208      5210      5205      5208      5211      5206      5205      5207
      5206      5205      5208      5207      5205      5208      5209      5208      5210
      5209      5208      5211      5210      5208      5211      5212      5215      5216
      5212      5215      5217      5212      5215      5218      5213      5212      5214
      5213      5212      5215      5214      5212      5215      5215      5218      5219
      5215      5218      5220      5215      5218      5221      5216      5215      5217
      5216      5215      5218      5217      5215      5218      5218      5221      5222
      5218      5221      5223      5218      5221      5224      5219      5218      5220
      5219      5218      5221      5220      5218      5221      5221      5224      5225
      5221      5224      5226      5221      5224      5227      5222      5221      5223
      5222      5221      5224      5223      5221      5224      5224      5227      5228
      5224      5227      5229      5224      5227      5230      5225      5224      5226
      5225      5224      5227      5226      5224      5227      5227      5230      5231
      5227      5230      5232      5227      5230      5233      5228      5227      5229
      5228      5227      5230      5229      5227      5230      5230      5233      5234
      5230      5233      5235      5230      5233      5236      5231      5230      5232
      5231      5230      5233      5232      5230      5233      5233      5236      5237
      5233      5236      5238      5233      5236      5239      5234      5233      5235
      5234      5233      5236      5235      5233      5236      5236      5239      5240
      5236      5239      5241      5236      5239      5242      5237      5236      5238
      5237      5236      5239      5238      5236      5239      5239      5242      5243
      5239      5242      5244      5239      5242      5245      5240      5239      5241
      5240      5239      5242      5241      5239      5242      5242      5245      5246
      5242      5245      5247      5242      5245      5248      5243      5242      5244
      5243      5242      5245      5244      5242      5245      5245      5248      5249
      5245      5248      5250      5245      5248      5251      5246      5245      5247
      5246      5245      5248      5247      5245      5248      5248      5251      5252
      5248      5251      5253      5248      5251      5254      5249      5248      5250
      5249      5248      5251      5250      5248      5251      5252      5251      5253
      5252      5251      5254      5253      5251      5254      5255      5259      5260
      5255      5259      5261      5255      5259      5262      5256      5255      5257
      5256      5255      5258      5256      5255      5259      5257      5255      5258
      5257      5255      5259      5258      5255      5259      5259      5262      5263
      5259      5262      5264      5259      5262      5269      5260      5259      5261
      5260      5259      5262      5261      5259      5262      5262      5269      5265
      5263      5262      5264      5263      5262      5269      5264      5262      5269
      5265      5268      5270      5266      5265      5267      5266      5265      5268
      5266      5265      5269      5267      5265      5268      5267      5265      5269
      5268      5265      5269      5268      5270      5271      5268      5270      5272
      5268      5270      5273      5270      5273      5274      5270      5273      5275
      5270      5273      5281      5271      5270      5272      5271      5270      5273
      5272      5270      5273      5273      5275      5276      5273      5281      5282
      5273      5281      5283      5273      5281      5284      5274      5273      5275
      5274      5273      5281      5275      5273      5281      5275      5276      5277
      5275      5276      5278      5276      5278      5279      5276      5278      5280
      5276      5278      5290      5277      5276      5278      5278      5290      5291
      5278      5290      5292      5278      5290      5293      5279      5278      5280
      5279      5278      5290      5280      5278      5290      5281      5284      5285
      5282      5281      5283      5282      5281      5284      5283      5281      5284
      5284      5285      5286      5284      5285      5287      5285      5287      5288
      5285      5287      5289      5285      5287      5334      5286      5285      5287
      5287      5334      5335      5287      5334      5336      5287      5334      5337
      5288      5287      5289      5288      5287      5334      5289      5287      5334
      5290      5293      5294      5290      5293      5295      5290      5293      5296
      5291      5290      5292      5291      5290      5293      5292      5290      5293
      5293      5296      5297      5293      5296      5298      5293      5296      5299
      5294      5293      5295      5294      5293      5296      5295      5293      5296
      5296      5299      5300      5296      5299      5301      5296      5299      5302
      5297      5296      5298      5297      5296      5299      5298      5296      5299
      5299      5302      5303      5299      5302      5304      5299      5302      5305
      5300      5299      5301      5300      5299      5302      5301      5299      5302
      5302      5305      5306      5302      5305      5307      5302      5305      5308
      5303      5302      5304      5303      5302      5305      5304      5302      5305
      5305      5308      5309      5305      5308      5310      5305      5308      5313
      5306      5305      5307      5306      5305      5308      5307      5305      5308
      5308      5310      5311      5308      5310      5312      5308      5310      5313
      5308      5313      5310      5308      5313      5314      5308      5313      5315
      5309      5308      5310      5309      5308      5313      5310      5308      5313
      5310      5313      5314      5310      5313      5315      5311      5310      5312
      5311      5310      5313      5312      5310      5313      5313      5315      5316
      5313      5315      5317      5313      5315      5318      5314      5313      5315
      5315      5318      5319      5315      5318      5320      5315      5318      5321
      5316      5315      5317      5316      5315      5318      5317      5315      5318
      5318      5321      5322      5318      5321      5323      5318      5321      5324
      5319      5318      5320      5319      5318      5321      5320      5318      5321
      5321      5324      5325      5321      5324      5326      5321      5324      5327
      5322      5321      5323      5322      5321      5324      5323      5321      5324
      5324      5327      5328      5324      5327      5329      5324      5327      5330
      5325      5324      5326      5325      5324      5327      5326      5324      5327
      5327      5330      5331      5327      5330      5332      5327      5330      5333
      5328      5327      5329      5328      5327      5330      5329      5327      5330
      5331      5330      5332      5331      5330      5333      5332      5330      5333
      5334      5337      5338      5334      5337      5339      5334      5337      5340
      5335      5334      5336      5335      5334      5337      5336      5334      5337
      5337      5340      5341      5337      5340      5342      5337      5340      5343
      5338      5337      5339      5338      5337      5340      5339      5337      5340
      5340      5343      5344      5340      5343      5345      5340      5343      5346
      5341      5340      5342      5341      5340      5343      5342      5340      5343
      5343      5346      5347      5343      5346      5348      5343      5346      5349
      5344      5343      5345      5344      5343      5346      5345      5343      5346
      5346      5349      5350      5346      5349      5351      5346      5349      5352
      5347      5346      5348      5347      5346      5349      5348      5346      5349
      5349      5352      5353      5349      5352      5354      5349      5352      5355
      5350      5349      5351      5350      5349      5352      5351      5349      5352
      5352      5355      5356      5352      5355      5357      5352      5355      5358
      5353      5352      5354      5353      5352      5355      5354      5352      5355
      5355      5358      5359      5355      5358      5360      5355      5358      5361
      5356      5355      5357      5356      5355      5358      5357      5355      5358
      5358      5361      5362      5358      5361      5363      5358      5361      5364
      5359      5358      5360      5359      5358      5361      5360      5358      5361
      5361      5364      5365      5361      5364      5366      5361      5364      5367
      5362      5361      5363      5362      5361      5364      5363      5361      5364
      5364      5367      5368      5364      5367      5369      5364      5367      5370
      5365      5364      5366      5365      5364      5367      5366      5364      5367
      5367      5370      5371      5367      5370      5372      5367      5370      5373
      5368      5367      5369      5368      5367      5370      5369      5367      5370
      5370      5373      5374      5370      5373      5375      5370      5373      5376
      5371      5370      5372      5371      5370      5373      5372      5370      5373
      5374      5373      5375      5374      5373      5376      5375      5373      5376
      5377      5381      5382      5377      5381      5383      5377      5381      5384
      5378      5377      5379      5378      5377      5380      5378      5377      5381
      5379      5377      5380      5379      5377      5381      5380      5377      5381
      5381      5384      5385      5381      5384      5386      5381      5384      5391
      5382      5381      5383      5382      5381      5384      5383      5381      5384
      5384      5391      5387      5385      5384      5386      5385      5384      5391
      5386      5384      5391      5387      5390      5392      5388      5387      5389
      5388      5387      5390      5388      5387      5391      5389      5387      5390
      5389      5387      5391      5390      5387      5391      5390      5392      5393
      5390      5392      5394      5390      5392      5395      5392      5395      5396
      5392      5395      5397      5392      5395      5403      5393      5392      5394
      5393      5392      5395      5394      5392      5395      5395      5397      5398
      5395      5403      5404      5395      5403      5405      5395      5403      5406
      5396      5395      5397      5396      5395      5403      5397      5395      5403
      5397      5398      5399      5397      5398      5400      5398      5400      5401
      5398      5400      5402      5398      5400      5412      5399      5398      5400
      5400      5412      5413      5400      5412      5414      5400      5412      5415
      5401      5400      5402      5401      5400      5412      5402      5400      5412
      5403      5406      5407      5404      5403      5405      5404      5403      5406
      5405      5403      5406      5406      5407      5408      5406      5407      5409
      5407      5409      5410      5407      5409      5411      5407      5409      5456
      5408      5407      5409      5409      5456      5457      5409      5456      5458
      5409      5456      5459      5410      5409      5411      5410      5409      5456
      5411      5409      5456      5412      5415      5416      5412      5415      5417
      5412      5415      5418      5413      5412      5414      5413      5412      5415
      5414      5412      5415      5415      5418      5419      5415      5418      5420
      5415      5418      5421      5416      5415      5417      5416      5415      5418
      5417      5415      5418      5418      5421      5422      5418      5421      5423
      5418      5421      5424      5419      5418      5420      5419      5418      5421
      5420      5418      5421      5421      5424      5425      5421      5424      5426
      5421      5424      5427      5422      5421      5423      5422      5421      5424
      5423      5421      5424      5424      5427      5428      5424      5427      5429
      5424      5427      5430      5425      5424      5426      5425      5424      5427
      5426      5424      5427      5427      5430      5431      5427      5430      5432
      5427      5430      5435      5428      5427      5429      5428      5427      5430
      5429      5427      5430      5430      5432      5433      5430      5432      5434
      5430      5432      5435      5430      5435      5432      5430      5435      5436
      5430      5435      5437      5431      5430      5432      5431      5430      5435
      5432      5430      5435      5432      5435      5436      5432      5435      5437
      5433      5432      5434      5433      5432      5435      5434      5432      5435
      5435      5437      5438      5435      5437      5439      5435      5437      5440
      5436      5435      5437      5437      5440      5441      5437      5440      5442
      5437      5440      5443      5438      5437      5439      5438      5437      5440
      5439      5437      5440      5440      5443      5444      5440      5443      5445
      5440      5443      5446      5441      5440      5442      5441      5440      5443
      5442      5440      5443      5443      5446      5447      5443      5446      5448
      5443      5446      5449      5444      5443      5445      5444      5443      5446
      5445      5443      5446      5446      5449      5450      5446      5449      5451
      5446      5449      5452      5447      5446      5448      5447      5446      5449
      5448      5446      5449      5449      5452      5453      5449      5452      5454
      5449      5452      5455      5450      5449      5451      5450      5449      5452
      5451      5449      5452      5453      5452      5454      5453      5452      5455
      5454      5452      5455      5456      5459      5460      5456      5459      5461
      5456      5459      5462      5457      5456      5458      5457      5456      5459
      5458      5456      5459      5459      5462      5463      5459      5462      5464
      5459      5462      5465      5460      5459      5461      5460      5459      5462
      5461      5459      5462      5462      5465      5466      5462      5465      5467
      5462      5465      5468      5463      5462      5464      5463      5462      5465
      5464      5462      5465      5465      5468      5469      5465      5468      5470
      5465      5468      5471      5466      5465      5467      5466      5465      5468
      5467      5465      5468      5468      5471      5472      5468      5471      5473
      5468      5471      5474      5469      5468      5470      5469      5468      5471
      5470      5468      5471      5471      5474      5475      5471      5474      5476
      5471      5474      5477      5472      5471      5473      5472      5471      5474
      5473      5471      5474      5474      5477      5478      5474      5477      5479
      5474      5477      5480      5475      5474      5476      5475      5474      5477
      5476      5474      5477      5477      5480      5481      5477      5480      5482
      5477      5480      5483      5478      5477      5479      5478      5477      5480
      5479      5477      5480      5480      5483      5484      5480      5483      5485
      5480      5483      5486      5481      5480      5482      5481      5480      5483
      5482      5480      5483      5483      5486      5487      5483      5486      5488
      5483      5486      5489      5484      5483      5485      5484      5483      5486
      5485      5483      5486      5486      5489      5490      5486      5489      5491
      5486      5489      5492      5487      5486      5488      5487      5486      5489
      5488      5486      5489      5489      5492      5493      5489      5492      5494
      5489      5492      5495      5490      5489      5491      5490      5489      5492
      5491      5489      5492      5492      5495      5496      5492      5495      5497
      5492      5495      5498      5493      5492      5494      5493      5492      5495
      5494      5492      5495      5496      5495      5497      5496      5495      5498
      5497      5495      5498      5499      5503      5504      5499      5503      5505
      5499      5503      5506      5500      5499      5501      5500      5499      5502
      5500      5499      5503      5501      5499      5502      5501      5499      5503
      5502      5499      5503      5503      5506      5507      5503      5506      5508
      5503      5506      5513      5504      5503      5505      5504      5503      5506
      5505      5503      5506      5506      5513      5509      5507      5506      5508
      5507      5506      5513      5508      5506      5513      5509      5512      5514
      5510      5509      5511      5510      5509      5512      5510      5509      5513
      5511      5509      5512      5511      5509      5513      5512      5509      5513
      5512      5514      5515      5512      5514      5516      5512      5514      5517
      5514      5517      5518      5514      5517      5519      5514      5517      5525
      5515      5514      5516      5515      5514      5517      5516      5514      5517
      5517      5519      5520      5517      5525      5526      5517      5525      5527
      5517      5525      5528      5518      5517      5519      5518      5517      5525
      5519      5517      5525      5519      5520      5521      5519      5520      5522
      5520      5522      5523      5520      5522      5524      5520      5522      5534
      5521      5520      5522      5522      5534      5535      5522      5534      5536
      5522      5534      5537      5523      5522      5524      5523      5522      5534
      5524      5522      5534      5525      5528      5529      5526      5525      5527
      5526      5525      5528      5527      5525      5528      5528      5529      5530
      5528      5529      5531      5529      5531      5532      5529      5531      5533
      5529      5531      5578      5530      5529      5531      5531      5578      5579
      5531      5578      5580      5531      5578      5581      5532      5531      5533
      5532      5531      5578      5533      5531      5578      5534      5537      5538
      5534      5537      5539      5534      5537      5540      5535      5534      5536
      5535      5534      5537      5536      5534      5537      5537      5540      5541
      5537      5540      5542      5537      5540      5543      5538      5537      5539
      5538      5537      5540      5539      5537      5540      5540      5543      5544
      5540      5543      5545      5540      5543      5546      5541      5540      5542
      5541      5540      5543      5542      5540      5543      5543      5546      5547
      5543      5546      5548      5543      5546      5549      5544      5543      5545
      5544      5543      5546      5545      5543      5546      5546      5549      5550
      5546      5549      5551      5546      5549      5552      5547      5546      5548
      5547      5546      5549      5548      5546      5549      5549      5552      5553
      5549      5552      5554      5549      5552      5557      5550      5549      5551
      5550      5549      5552      5551      5549      5552      5552      5554      5555
      5552      5554      5556      5552      5554      5557      5552      5557      5554
      5552      5557      5558      5552      5557      5559      5553      5552      5554
      5553      5552      5557      5554      5552      5557      5554      5557      5558
      5554      5557      5559      5555      5554      5556      5555      5554      5557
      5556      5554      5557      5557      5559      5560      5557      5559      5561
      5557      5559      5562      5558      5557      5559      5559      5562      5563
      5559      5562      5564      5559      5562      5565      5560      5559      5561
      5560      5559      5562      5561      5559      5562      5562      5565      5566
      5562      5565      5567      5562      5565      5568      5563      5562      5564
      5563      5562      5565      5564      5562      5565      5565      5568      5569
      5565      5568      5570      5565      5568      5571      5566      5565      5567
      5566      5565      5568      5567      5565      5568      5568      5571      5572
      5568      5571      5573      5568      5571      5574      5569      5568      5570
      5569      5568      5571      5570      5568      5571      5571      5574      5575
      5571      5574      5576      5571      5574      5577      5572      5571      5573
      5572      5571      5574      5573      5571      5574      5575      5574      5576
      5575      5574      5577      5576      5574      5577      5578      5581      5582
      5578      5581      5583      5578      5581      5584      5579      5578      5580
      5579      5578      5581      5580      5578      5581      5581      5584      5585
      5581      5584      5586      5581      5584      5587      5582      5581      5583
      5582      5581      5584      5583      5581      5584      5584      5587      5588
      5584      5587      5589      5584      5587      5590      5585      5584      5586
      5585      5584      5587      5586      5584      5587      5587      5590      5591
      5587      5590      5592      5587      5590      5593      5588      5587      5589
      5588      5587      5590      5589      5587      5590      5590      5593      5594
      5590      5593      5595      5590      5593      5596      5591      5590      5592
      5591      5590      5593      5592      5590      5593      5593      5596      5597
      5593      5596      5598      5593      5596      5599      5594      5593      5595
      5594      5593      5596      5595      5593      5596      5596      5599      5600
      5596      5599      5601      5596      5599      5602      5597      5596      5598
      5597      5596      5599      5598      5596      5599      5599      5602      5603
      5599      5602      5604      5599      5602      5605      5600      5599      5601
      5600      5599      5602      5601      5599      5602      5602      5605      5606
      5602      5605      5607      5602      5605      5608      5603      5602      5604
      5603      5602      5605      5604      5602      5605      5605      5608      5609
      5605      5608      5610      5605      5608      5611      5606      5605      5607
      5606      5605      5608      5607      5605      5608      5608      5611      5612
      5608      5611      5613      5608      5611      5614      5609      5608      5610
      5609      5608      5611      5610      5608      5611      5611      5614      5615
      5611      5614      5616      5611      5614      5617      5612      5611      5613
      5612      5611      5614      5613      5611      5614      5614      5617      5618
      5614      5617      5619      5614      5617      5620      5615      5614      5616
      5615      5614      5617      5616      5614      5617      5618      5617      5619
      5618      5617      5620      5619      5617      5620      5621      5625      5626
      5621      5625      5627      5621      5625      5628      5622      5621      5623
      5622      5621      5624      5622      5621      5625      5623      5621      5624
      5623      5621      5625      5624      5621      5625      5625      5628      5629
      5625      5628      5630      5625      5628      5635      5626      5625      5627
      5626      5625      5628      5627      5625      5628      5628      5635      5631
      5629      5628      5630      5629      5628      5635      5630      5628      5635
      5631      5634      5636      5632      5631      5633      5632      5631      5634
      5632      5631      5635      5633      5631      5634      5633      5631      5635
      5634      5631      5635      5634      5636      5637      5634      5636      5638
      5634      5636      5639      5636      5639      5640      5636      5639      5641
      5636      5639      5647      5637      5636      5638      5637      5636      5639
      5638      5636      5639      5639      5641      5642      5639      5647      5648
      5639      5647      5649      5639      5647      5650      5640      5639      5641
      5640      5639      5647      5641      5639      5647      5641      5642      5643
      5641      5642      5644      5642      5644      5645      5642      5644      5646
      5642      5644      5656      5643      5642      5644      5644      5656      5657
      5644      5656      5658      5644      5656      5659      5645      5644      5646
      5645      5644      5656      5646      5644      5656      5647      5650      5651
      5648      5647      5649      5648      5647      5650      5649      5647      5650
      5650      5651      5652      5650      5651      5653      5651      5653      5654
      5651      5653      5655      5651      5653      5703      5652      5651      5653
      5653      5703      5704      5653      5703      5705      5653      5703      5706
      5654      5653      5655      5654      5653      5703      5655      5653      5703
      5656      5659      5660      5656      5659      5661      5656      5659      5662
      5657      5656      5658      5657      5656      5659      5658      5656      5659
      5659      5662      5663      5659      5662      5664      5659      5662      5665
      5660      5659      5661      5660      5659      5662      5661      5659      5662
      5662      5665      5666      5662      5665      5667      5662      5665      5668
      5663      5662      5664      5663      5662      5665      5664      5662      5665
      5665      5668      5669      5665      5668      5670      5665      5668      5671
      5666      5665      5667      5666      5665      5668      5667      5665      5668
      5668      5671      5672      5668      5671      5673      5668      5671      5674
      5669      5668      5670      5669      5668      5671      5670      5668      5671
      5671      5674      5675      5671      5674      5676      5672      5671      5673
      5672      5671      5674      5673      5671      5674      5674      5676      5677
      5674      5676      5678      5675      5674      5676      5676      5678      5679
      5676      5678      5680      5676      5678      5681      5677      5676      5678
      5678      5681      5682      5678      5681      5683      5678      5681      5684
      5679      5678      5680      5679      5678      5681      5680      5678      5681
      5681      5684      5685      5681      5684      5686      5681      5684      5687
      5682      5681      5683      5682      5681      5684      5683      5681      5684
      5684      5687      5688      5684      5687      5689      5684      5687      5690
      5685      5684      5686      5685      5684      5687      5686      5684      5687
      5687      5690      5691      5687      5690      5692      5687      5690      5693
      5688      5687      5689      5688      5687      5690      5689      5687      5690
      5690      5693      5694      5690      5693      5695      5690      5693      5696
      5691      5690      5692      5691      5690      5693      5692      5690      5693
      5693      5696      5697      5693      5696      5698      5693      5696      5699
      5694      5693      5695      5694      5693      5696      5695      5693      5696
      5696      5699      5700      5696      5699      5701      5696      5699      5702
      5697      5696      5698      5697      5696      5699      5698      5696      5699
      5700      5699      5701      5700      5699      5702      5701      5699      5702
      5703      5706      5707      5703      5706      5708      5703      5706      5709
      5704      5703      5705      5704      5703      5706      5705      5703      5706
      5706      5709      5710      5706      5709      5711      5706      5709      5712
      5707      5706      5708      5707      5706      5709      5708      5706      5709
      5709      5712      5713      5709      5712      5714      5709      5712      5715
      5710      5709      5711      5710      5709      5712      5711      5709      5712
      5712      5715      5716      5712      5715      5717      5712      5715      5718
      5713      5712      5714      5713      5712      5715      5714      5712      5715
      5715      5718      5719      5715      5718      5720      5715      5718      5721
      5716      5715      5717      5716      5715      5718      5717      5715      5718
      5718      5721      5722      5718      5721      5723      5718      5721      5724
      5719      5718      5720      5719      5718      5721      5720      5718      5721
      5721      5724      5725      5721      5724      5726      5721      5724      5727
      5722      5721      5723      5722      5721      5724      5723      5721      5724
      5724      5727      5728      5724      5727      5729      5724      5727      5730
      5725      5724      5726      5725      5724      5727      5726      5724      5727
      5727      5730      5731      5727      5730      5732      5727      5730      5733
      5728      5727      5729      5728      5727      5730      5729      5727      5730
      5730      5733      5734      5730      5733      5735      5730      5733      5736
      5731      5730      5732      5731      5730      5733      5732      5730      5733
      5733      5736      5737      5733      5736      5738      5733      5736      5739
      5734      5733      5735      5734      5733      5736      5735      5733      5736
      5736      5739      5740      5736      5739      5741      5736      5739      5742
      5737      5736      5738      5737      5736      5739      5738      5736      5739
      5739      5742      5743      5739      5742      5744      5739      5742      5745
      5740      5739      5741      5740      5739      5742      5741      5739      5742
      5743      5742      5744      5743      5742      5745      5744      5742      5745
      5746      5750      5751      5746      5750      5752      5746      5750      5753
      5747      5746      5748      5747      5746      5749      5747      5746      5750
      5748      5746      5749      5748      5746      5750      5749      5746      5750
      5750      5753      5754      5750      5753      5755      5750      5753      5760
      5751      5750      5752      5751      5750      5753      5752      5750      5753
      5753      5760      5756      5754      5753      5755      5754      5753      5760
      5755      5753      5760      5756      5759      5761      5757      5756      5758
      5757      5756      5759      5757      5756      5760      5758      5756      5759
      5758      5756      5760      5759      5756      5760      5759      5761      5762
      5759      5761      5763      5759      5761      5764      5761      5764      5765
      5761      5764      5766      5761      5764      5772      5762      5761      5763
      5762      5761      5764      5763      5761      5764      5764      5766      5767
      5764      5772      5773      5764      5772      5774      5764      5772      5775
      5765      5764      5766      5765      5764      5772      5766      5764      5772
      5766      5767      5768      5766      5767      5769      5767      5769      5770
      5767      5769      5771      5767      5769      5781      5768      5767      5769
      5769      5781      5782      5769      5781      5783      5769      5781      5784
      5770      5769      5771      5770      5769      5781      5771      5769      5781
      5772      5775      5776      5773      5772      5774      5773      5772      5775
      5774      5772      5775      5775      5776      5777      5775      5776      5778
      5776      5778      5779      5776      5778      5780      5776      5778      5825
      5777      5776      5778      5778      5825      5826      5778      5825      5827
      5778      5825      5828      5779      5778      5780      5779      5778      5825
      5780      5778      5825      5781      5784      5785      5781      5784      5786
      5781      5784      5787      5782      5781      5783      5782      5781      5784
      5783      5781      5784      5784      5787      5788      5784      5787      5789
      5784      5787      5790      5785      5784      5786      5785      5784      5787
      5786      5784      5787      5787      5790      5791      5787      5790      5792
      5787      5790      5793      5788      5787      5789      5788      5787      5790
      5789      5787      5790      5790      5793      5794      5790      5793      5795
      5790      5793      5796      5791      5790      5792      5791      5790      5793
      5792      5790      5793      5793      5796      5797      5793      5796      5798
      5793      5796      5799      5794      5793      5795      5794      5793      5796
      5795      5793      5796      5796      5799      5800      5796      5799      5801
      5796      5799      5804      5797      5796      5798      5797      5796      5799
      5798      5796      5799      5799      5801      5802      5799      5801      5803
      5799      5801      5804      5799      5804      5801      5799      5804      5805
      5799      5804      5806      5800      5799      5801      5800      5799      5804
      5801      5799      5804      5801      5804      5805      5801      5804      5806
      5802      5801      5803      5802      5801      5804      5803      5801      5804
      5804      5806      5807      5804      5806      5808      5804      5806      5809
      5805      5804      5806      5806      5809      5810      5806      5809      5811
      5806      5809      5812      5807      5806      5808      5807      5806      5809
      5808      5806      5809      5809      5812      5813      5809      5812      5814
      5809      5812      5815      5810      5809      5811      5810      5809      5812
      5811      5809      5812      5812      5815      5816      5812      5815      5817
      5812      5815      5818      5813      5812      5814      5813      5812      5815
      5814      5812      5815      5815      5818      5819      5815      5818      5820
      5815      5818      5821      5816      5815      5817      5816      5815      5818
      5817      5815      5818      5818      5821      5822      5818      5821      5823
      5818      5821      5824      5819      5818      5820      5819      5818      5821
      5820      5818      5821      5822      5821      5823      5822      5821      5824
      5823      5821      5824      5825      5828      5829      5825      5828      5830
      5825      5828      5831      5826      5825      5827      5826      5825      5828
      5827      5825      5828      5828      5831      5832      5828      5831      5833
      5828      5831      5834      5829      5828      5830      5829      5828      5831
      5830      5828      5831      5831      5834      5835      5831      5834      5836
      5831      5834      5837      5832      5831      5833      5832      5831      5834
      5833      5831      5834      5834      5837      5838      5834      5837      5839
      5834      5837      5840      5835      5834      5836      5835      5834      5837
      5836      5834      5837      5837      5840      5841      5837      5840      5842
      5837      5840      5843      5838      5837      5839      5838      5837      5840
      5839      5837      5840      5840      5843      5844      5840      5843      5845
      5840      5843      5846      5841      5840      5842      5841      5840      5843
      5842      5840      5843      5843      5846      5847      5843      5846      5848
      5843      5846      5849      5844      5843      5845      5844      5843      5846
      5845      5843      5846      5846      5849      5850      5846      5849      5851
      5846      5849      5852      5847      5846      5848      5847      5846      5849
      5848      5846      5849      5849      5852      5853      5849      5852      5854
      5849      5852      5855      5850      5849      5851      5850      5849      5852
      5851      5849      5852      5852      5855      5856      5852      5855      5857
      5852      5855      5858      5853      5852      5854      5853      5852      5855
      5854      5852      5855      5855      5858      5859      5855      5858      5860
      5855      5858      5861      5856      5855      5857      5856      5855      5858
      5857      5855      5858      5858      5861      5862      5858      5861      5863
      5858      5861      5864      5859      5858      5860      5859      5858      5861
      5860      5858      5861      5862      5861      5863      5862      5861      5864
      5863      5861      5864      5865      5869      5870      5865      5869      5871
      5865      5869      5872      5866      5865      5867      5866      5865      5868
      5866      5865      5869      5867      5865      5868      5867      5865      5869
      5868      5865      5869      5869      5872      5873      5869      5872      5874
      5869      5872      5879      5870      5869      5871      5870      5869      5872
      5871      5869      5872      5872      5879      5875      5873      5872      5874
      5873      5872      5879      5874      5872      5879      5875      5878      5880
      5876      5875      5877      5876      5875      5878      5876      5875      5879
      5877      5875      5878      5877      5875      5879      5878      5875      5879
      5878      5880      5881      5878      5880      5882      5878      5880      5883
      5880      5883      5884      5880      5883      5885      5880      5883      5891
      5881      5880      5882      5881      5880      5883      5882      5880      5883
      5883      5885      5886      5883      5891      5892      5883      5891      5893
      5883      5891      5894      5884      5883      5885      5884      5883      5891
      5885      5883      5891      5885      5886      5887      5885      5886      5888
      5886      5888      5889      5886      5888      5890      5886      5888      5900
      5887      5886      5888      5888      5900      5901      5888      5900      5902
      5888      5900      5903      5889      5888      5890      5889      5888      5900
      5890      5888      5900      5891      5894      5895      5892      5891      5893
      5892      5891      5894      5893      5891      5894      5894      5895      5896
      5894      5895      5897      5895      5897      5898      5895      5897      5899
      5895      5897      5944      5896      5895      5897      5897      5944      5945
      5897      5944      5946      5897      5944      5947      5898      5897      5899
      5898      5897      5944      5899      5897      5944      5900      5903      5904
      5900      5903      5905      5900      5903      5906      5901      5900      5902
      5901      5900      5903      5902      5900      5903      5903      5906      5907
      5903      5906      5908      5903      5906      5909      5904      5903      5905
      5904      5903      5906      5905      5903      5906      5906      5909      5910
      5906      5909      5911      5906      5909      5912      5907      5906      5908
      5907      5906      5909      5908      5906      5909      5909      5912      5913
      5909      5912      5914      5909      5912      5915      5910      5909      5911
      5910      5909      5912      5911      5909      5912      5912      5915      5916
      5912      5915      5917      5912      5915      5918      5913      5912      5914
      5913      5912      5915      5914      5912      5915      5915      5918      5919
      5915      5918      5920      5915      5918      5923      5916      5915      5917
      5916      5915      5918      5917      5915      5918      5918      5920      5921
      5918      5920      5922      5918      5920      5923      5918      5923      5920
      5918      5923      5924      5918      5923      5925      5919      5918      5920
      5919      5918      5923      5920      5918      5923      5920      5923      5924
      5920      5923      5925      5921      5920      5922      5921      5920      5923
      5922      5920      5923      5923      5925      5926      5923      5925      5927
      5923      5925      5928      5924      5923      5925      5925      5928      5929
      5925      5928      5930      5925      5928      5931      5926      5925      5927
      5926      5925      5928      5927      5925      5928      5928      5931      5932
      5928      5931      5933      5928      5931      5934      5929      5928      5930
      5929      5928      5931      5930      5928      5931      5931      5934      5935
      5931      5934      5936      5931      5934      5937      5932      5931      5933
      5932      5931      5934      5933      5931      5934      5934      5937      5938
      5934      5937      5939      5934      5937      5940      5935      5934      5936
      5935      5934      5937      5936      5934      5937      5937      5940      5941
      5937      5940      5942      5937      5940      5943      5938      5937      5939
      5938      5937      5940      5939      5937      5940      5941      5940      5942
      5941      5940      5943      5942      5940      5943      5944      5947      5948
      5944      5947      5949      5944      5947      5950      5945      5944      5946
      5945      5944      5947      5946      5944      5947      5947      5950      5951
      5947      5950      5952      5947      5950      5953      5948      5947      5949
      5948      5947      5950      5949      5947      5950      5950      5953      5954
      5950      5953      5955      5950      5953      5956      5951      5950      5952
      5951      5950      5953      5952      5950      5953      5953      5956      5957
      5953      5956      5958      5953      5956      5959      5954      5953      5955
      5954      5953      5956      5955      5953      5956      5956      5959      5960
      5956      5959      5961      5956      5959      5962      5957      5956      5958
      5957      5956      5959      5958      5956      5959      5959      5962      5963
      5959      5962      5964      5959      5962      5965      5960      5959      5961
      5960      5959      5962      5961      5959      5962      5962      5965      5966
      5962      5965      5967      5962      5965      5968      5963      5962      5964
      5963      5962      5965      5964      5962      5965      5965      5968      5969
      5965      5968      5970      5965      5968      5971      5966      5965      5967
      5966      5965      5968      5967      5965      5968      5968      5971      5972
      5968      5971      5973      5968      5971      5974      5969      5968      5970
      5969      5968      5971      5970      5968      5971      5971      5974      5975
      5971      5974      5976      5971      5974      5977      5972      5971      5973
      5972      5971      5974      5973      5971      5974      5974      5977      5978
      5974      5977      5979      5974      5977      5980      5975      5974      5976
      5975      5974      5977      5976      5974      5977      5977      5980      5981
      5977      5980      5982      5977      5980      5983      5978      5977      5979
      5978      5977      5980      5979      5977      5980      5980      5983      5984
      5980      5983      5985      5980      5983      5986      5981      5980      5982
      5981      5980      5983      5982      5980      5983      5984      5983      5985
      5984      5983      5986      5985      5983      5986      5987      5991      5992
      5987      5991      5993      5987      5991      5994      5988      5987      5989
      5988      5987      5990      5988      5987      5991      5989      5987      5990
      5989      5987      5991      5990      5987      5991      5991      5994      5995
      5991      5994      5996      5991      5994      6001      5992      5991      5993
      5992      5991      5994      5993      5991      5994      5994      6001      5997
      5995      5994      5996      5995      5994      6001      5996      5994      6001
      5997      6000      6002      5998      5997      5999      5998      5997      6000
      5998      5997      6001      5999      5997      6000      5999      5997      6001
      6000      5997      6001      6000      6002      6003      6000      6002      6004
      6000      6002      6005      6002      6005      6006      6002      6005      6007
      6002      6005      6013      6003      6002      6004      6003      6002      6005
      6004      6002      6005      6005      6007      6008      6005      6013      6014
      6005      6013      6015      6005      6013      6016      6006      6005      6007
      6006      6005      6013      6007      6005      6013      6007      6008      6009
      6007      6008      6010      6008      6010      6011      6008      6010      6012
      6008      6010      6022      6009      6008      6010      6010      6022      6023
      6010      6022      6024      6010      6022      6025      6011      6010      6012
      6011      6010      6022      6012      6010      6022      6013      6016      6017
      6014      6013      6015      6014      6013      6016      6015      6013      6016
      6016      6017      6018      6016      6017      6019      6017      6019      6020
      6017      6019      6021      6017      6019      6066      6018      6017      6019
      6019      6066      6067      6019      6066      6068      6019      6066      6069
      6020      6019      6021      6020      6019      6066      6021      6019      6066
      6022      6025      6026      6022      6025      6027      6022      6025      6028
      6023      6022      6024      6023      6022      6025      6024      6022      6025
      6025      6028      6029      6025      6028      6030      6025      6028      6031
      6026      6025      6027      6026      6025      6028      6027      6025      6028
      6028      6031      6032      6028      6031      6033      6028      6031      6034
      6029      6028      6030      6029      6028      6031      6030      6028      6031
      6031      6034      6035      6031      6034      6036      6031      6034      6037
      6032      6031      6033      6032      6031      6034      6033      6031      6034
      6034      6037      6038      6034      6037      6039      6034      6037      6040
      6035      6034      6036      6035      6034      6037      6036      6034      6037
      6037      6040      6041      6037      6040      6042      6037      6040      6045
      6038      6037      6039      6038      6037      6040      6039      6037      6040
      6040      6042      6043      6040      6042      6044      6040      6042      6045
      6040      6045      6042      6040      6045      6046      6040      6045      6047
      6041      6040      6042      6041      6040      6045      6042      6040      6045
      6042      6045      6046      6042      6045      6047      6043      6042      6044
      6043      6042      6045      6044      6042      6045      6045      6047      6048
      6045      6047      6049      6045      6047      6050      6046      6045      6047
      6047      6050      6051      6047      6050      6052      6047      6050      6053
      6048      6047      6049      6048      6047      6050      6049      6047      6050
      6050      6053      6054      6050      6053      6055      6050      6053      6056
      6051      6050      6052      6051      6050      6053      6052      6050      6053
      6053      6056      6057      6053      6056      6058      6053      6056      6059
      6054      6053      6055      6054      6053      6056      6055      6053      6056
      6056      6059      6060      6056      6059      6061      6056      6059      6062
      6057      6056      6058      6057      6056      6059      6058      6056      6059
      6059      6062      6063      6059      6062      6064      6059      6062      6065
      6060      6059      6061      6060      6059      6062      6061      6059      6062
      6063      6062      6064      6063      6062      6065      6064      6062      6065
      6066      6069      6070      6066      6069      6071      6066      6069      6072
      6067      6066      6068      6067      6066      6069      6068      6066      6069
      6069      6072      6073      6069      6072      6074      6069      6072      6075
      6070      6069      6071      6070      6069      6072      6071      6069      6072
      6072      6075      6076      6072      6075      6077      6072      6075      6078
      6073      6072      6074      6073      6072      6075      6074      6072      6075
      6075      6078      6079      6075      6078      6080      6075      6078      6081
      6076      6075      6077      6076      6075      6078      6077      6075      6078
      6078      6081      6082      6078      6081      6083      6078      6081      6084
      6079      6078      6080      6079      6078      6081      6080      6078      6081
      6081      6084      6085      6081      6084      6086      6081      6084      6087
      6082      6081      6083      6082      6081      6084      6083      6081      6084
      6084      6087      6088      6084      6087      6089      6084      6087      6090
      6085      6084      6086      6085      6084      6087      6086      6084      6087
      6087      6090      6091      6087      6090      6092      6087      6090      6093
      6088      6087      6089      6088      6087      6090      6089      6087      6090
      6090      6093      6094      6090      6093      6095      6090      6093      6096
      6091      6090      6092      6091      6090      6093      6092      6090      6093
      6093      6096      6097      6093      6096      6098      6093      6096      6099
      6094      6093      6095      6094      6093      6096      6095      6093      6096
      6096      6099      6100      6096      6099      6101      6096      6099      6102
      6097      6096      6098      6097      6096      6099      6098      6096      6099
      6099      6102      6103      6099      6102      6104      6099      6102      6105
      6100      6099      6101      6100      6099      6102      6101      6099      6102
      6102      6105      6106      6102      6105      6107      6102      6105      6108
      6103      6102      6104      6103      6102      6105      6104      6102      6105
      6106      6105      6107      6106      6105      6108      6107      6105      6108
      6109      6113      6114      6109      6113      6115      6109      6113      6116
      6110      6109      6111      6110      6109      6112      6110      6109      6113
      6111      6109      6112      6111      6109      6113      6112      6109      6113
      6113      6116      6117      6113      6116      6118      6113      6116      6123
      6114      6113      6115      6114      6113      6116      6115      6113      6116
      6116      6123      6119      6117      6116      6118      6117      6116      6123
      6118      6116      6123      6119      6122      6124      6120      6119      6121
      6120      6119      6122      6120      6119      6123      6121      6119      6122
      6121      6119      6123      6122      6119      6123      6122      6124      6125
      6122      6124      6126      6122      6124      6127      6124      6127      6128
      6124      6127      6129      6124      6127      6135      6125      6124      6126
      6125      6124      6127      6126      6124      6127      6127      6129      6130
      6127      6135      6136      6127      6135      6137      6127      6135      6138
      6128      6127      6129      6128      6127      6135      6129      6127      6135
      6129      6130      6131      6129      6130      6132      6130      6132      6133
      6130      6132      6134      6130      6132      6144      6131      6130      6132
      6132      6144      6145      6132      6144      6146      6132      6144      6147
      6133      6132      6134      6133      6132      6144      6134      6132      6144
      6135      6138      6139      6136      6135      6137      6136      6135      6138
      6137      6135      6138      6138      6139      6140      6138      6139      6141
      6139      6141      6142      6139      6141      6143      6139      6141      6191
      6140      6139      6141      6141      6191      6192      6141      6191      6193
      6141      6191      6194      6142      6141      6143      6142      6141      6191
      6143      6141      6191      6144      6147      6148      6144      6147      6149
      6144      6147      6150      6145      6144      6146      6145      6144      6147
      6146      6144      6147      6147      6150      6151      6147      6150      6152
      6147      6150      6153      6148      6147      6149      6148      6147      6150
      6149      6147      6150      6150      6153      6154      6150      6153      6155
      6150      6153      6156      6151      6150      6152      6151      6150      6153
      6152      6150      6153      6153      6156      6157      6153      6156      6158
      6153      6156      6159      6154      6153      6155      6154      6153      6156
      6155      6153      6156      6156      6159      6160      6156      6159      6161
      6156      6159      6162      6157      6156      6158      6157      6156      6159
      6158      6156      6159      6159      6162      6163      6159      6162      6164
      6160      6159      6161      6160      6159      6162      6161      6159      6162
      6162      6164      6165      6162      6164      6166      6163      6162      6164
      6164      6166      6167      6164      6166      6168      6164      6166      6169
      6165      6164      6166      6166      6169      6170      6166      6169      6171
      6166      6169      6172      6167      6166      6168      6167      6166      6169
      6168      6166      6169      6169      6172      6173      6169      6172      6174
      6169      6172      6175      6170      6169      6171      6170      6169      6172
      6171      6169      6172      6172      6175      6176      6172      6175      6177
      6172      6175      6178      6173      6172      6174      6173      6172      6175
      6174      6172      6175      6175      6178      6179      6175      6178      6180
      6175      6178      6181      6176      6175      6177      6176      6175      6178
      6177      6175      6178      6178      6181      6182      6178      6181      6183
      6178      6181      6184      6179      6178      6180      6179      6178      6181
      6180      6178      6181      6181      6184      6185      6181      6184      6186
      6181      6184      6187      6182      6181      6183      6182      6181      6184
      6183      6181      6184      6184      6187      6188      6184      6187      6189
      6184      6187      6190      6185      6184      6186      6185      6184      6187
      6186      6184      6187      6188      6187      6189      6188      6187      6190
      6189      6187      6190      6191      6194      6195      6191      6194      6196
      6191      6194      6197      6192      6191      6193      6192      6191      6194
      6193      6191      6194      6194      6197      6198      6194      6197      6199
      6194      6197      6200      6195      6194      6196      6195      6194      6197
      6196      6194      6197      6197      6200      6201      6197      6200      6202
      6197      6200      6203      6198      6197      6199      6198      6197      6200
      6199      6197      6200      6200      6203      6204      6200      6203      6205
      6200      6203      6206      6201      6200      6202      6201      6200      6203
      6202      6200      6203      6203      6206      6207      6203      6206      6208
      6203      6206      6209      6204      6203      6205      6204      6203      6206
      6205      6203      6206      6206      6209      6210      6206      6209      6211
      6206      6209      6212      6207      6206      6208      6207      6206      6209
      6208      6206      6209      6209      6212      6213      6209      6212      6214
      6209      6212      6215      6210      6209      6211      6210      6209      6212
      6211      6209      6212      6212      6215      6216      6212      6215      6217
      6212      6215      6218      6213      6212      6214      6213      6212      6215
      6214      6212      6215      6215      6218      6219      6215      6218      6220
      6215      6218      6221      6216      6215      6217      6216      6215      6218
      6217      6215      6218      6218      6221      6222      6218      6221      6223
      6218      6221      6224      6219      6218      6220      6219      6218      6221
      6220      6218      6221      6221      6224      6225      6221      6224      6226
      6221      6224      6227      6222      6221      6223      6222      6221      6224
      6223      6221      6224      6224      6227      6228      6224      6227      6229
      6224      6227      6230      6225      6224      6226      6225      6224      6227
      6226      6224      6227      6227      6230      6231      6227      6230      6232
      6227      6230      6233      6228      6227      6229      6228      6227      6230
      6229      6227      6230      6231      6230      6232      6231      6230      6233
      6232      6230      6233      6234      6238      6239      6234      6238      6240
      6234      6238      6241      6235      6234      6236      6235      6234      6237
      6235      6234      6238      6236      6234      6237      6236      6234      6238
      6237      6234      6238      6238      6241      6242      6238      6241      6243
      6238      6241      6248      6239      6238      6240      6239      6238      6241
      6240      6238      6241      6241      6248      6244      6242      6241      6243
      6242      6241      6248      6243      6241      6248      6244      6247      6249
      6245      6244      6246      6245      6244      6247      6245      6244      6248
      6246      6244      6247      6246      6244      6248      6247      6244      6248
      6247      6249      6250      6247      6249      6251      6247      6249      6252
      6249      6252      6253      6249      6252      6254      6249      6252      6260
      6250      6249      6251      6250      6249      6252      6251      6249      6252
      6252      6254      6255      6252      6260      6261      6252      6260      6262
      6252      6260      6263      6253      6252      6254      6253      6252      6260
      6254      6252      6260      6254      6255      6256      6254      6255      6257
      6255      6257      6258      6255      6257      6259      6255      6257      6269
      6256      6255      6257      6257      6269      6270      6257      6269      6271
      6257      6269      6272      6258      6257      6259      6258      6257      6269
      6259      6257      6269      6260      6263      6264      6261      6260      6262
      6261      6260      6263      6262      6260      6263      6263      6264      6265
      6263      6264      6266      6264      6266      6267      6264      6266      6268
      6264      6266      6313      6265      6264      6266      6266      6313      6314
      6266      6313      6315      6266      6313      6316      6267      6266      6268
      6267      6266      6313      6268      6266      6313      6269      6272      6273
      6269      6272      6274      6269      6272      6275      6270      6269      6271
      6270      6269      6272      6271      6269      6272      6272      6275      6276
      6272      6275      6277      6272      6275      6278      6273      6272      6274
      6273      6272      6275      6274      6272      6275      6275      6278      6279
      6275      6278      6280      6275      6278      6281      6276      6275      6277
      6276      6275      6278      6277      6275      6278      6278      6281      6282
      6278      6281      6283      6278      6281      6284      6279      6278      6280
      6279      6278      6281      6280      6278      6281      6281      6284      6285
      6281      6284      6286      6281      6284      6287      6282      6281      6283
      6282      6281      6284      6283      6281      6284      6284      6287      6288
      6284      6287      6289      6284      6287      6292      6285      6284      6286
      6285      6284      6287      6286      6284      6287      6287      6289      6290
      6287      6289      6291      6287      6289      6292      6287      6292      6289
      6287      6292      6293      6287      6292      6294      6288      6287      6289
      6288      6287      6292      6289      6287      6292      6289      6292      6293
      6289      6292      6294      6290      6289      6291      6290      6289      6292
      6291      6289      6292      6292      6294      6295      6292      6294      6296
      6292      6294      6297      6293      6292      6294      6294      6297      6298
      6294      6297      6299      6294      6297      6300      6295      6294      6296
      6295      6294      6297      6296      6294      6297      6297      6300      6301
      6297      6300      6302      6297      6300      6303      6298      6297      6299
      6298      6297      6300      6299      6297      6300      6300      6303      6304
      6300      6303      6305      6300      6303      6306      6301      6300      6302
      6301      6300      6303      6302      6300      6303      6303      6306      6307
      6303      6306      6308      6303      6306      6309      6304      6303      6305
      6304      6303      6306      6305      6303      6306      6306      6309      6310
      6306      6309      6311      6306      6309      6312      6307      6306      6308
      6307      6306      6309      6308      6306      6309      6310      6309      6311
      6310      6309      6312      6311      6309      6312      6313      6316      6317
      6313      6316      6318      6313      6316      6319      6314      6313      6315
      6314      6313      6316      6315      6313      6316      6316      6319      6320
      6316      6319      6321      6316      6319      6322      6317      6316      6318
      6317      6316      6319      6318      6316      6319      6319      6322      6323
      6319      6322      6324      6319      6322      6325      6320      6319      6321
      6320      6319      6322      6321      6319      6322      6322      6325      6326
      6322      6325      6327      6322      6325      6328      6323      6322      6324
      6323      6322      6325      6324      6322      6325      6325      6328      6329
      6325      6328      6330      6325      6328      6331      6326      6325      6327
      6326      6325      6328      6327      6325      6328      6328      6331      6332
      6328      6331      6333      6328      6331      6334      6329      6328      6330
      6329      6328      6331      6330      6328      6331      6331      6334      6335
      6331      6334      6336      6331      6334      6337      6332      6331      6333
      6332      6331      6334      6333      6331      6334      6334      6337      6338
      6334      6337      6339      6334      6337      6340      6335      6334      6336
      6335      6334      6337      6336      6334      6337      6337      6340      6341
      6337      6340      6342      6337      6340      6343      6338      6337      6339
      6338      6337      6340      6339      6337      6340      6340      6343      6344
      6340      6343      6345      6340      6343      6346      6341      6340      6342
      6341      6340      6343      6342      6340      6343      6343      6346      6347
      6343      6346      6348      6343      6346      6349      6344      6343      6345
      6344      6343      6346      6345      6343      6346      6346      6349      6350
      6346      6349      6351      6346      6349      6352      6347      6346      6348
      6347      6346      6349      6348      6346      6349      6350      6349      6351
      6350      6349      6352      6351      6349      6352      6353      6357      6358
      6353      6357      6359      6353      6357      6360      6354      6353      6355
      6354      6353      6356      6354      6353      6357      6355      6353      6356
      6355      6353      6357      6356      6353      6357      6357      6360      6361
      6357      6360      6362      6357      6360      6367      6358      6357      6359
      6358      6357      6360      6359      6357      6360      6360      6367      6363
      6361      6360      6362      6361      6360      6367      6362      6360      6367
      6363      6366      6368      6364      6363      6365      6364      6363      6366
      6364      6363      6367      6365      6363      6366      6365      6363      6367
      6366      6363      6367      6366      6368      6369      6366      6368      6370
      6366      6368      6371      6368      6371      6372      6368      6371      6373
      6368      6371      6379      6369      6368      6370      6369      6368      6371
      6370      6368      6371      6371      6373      6374      6371      6379      6380
      6371      6379      6381      6371      6379      6382      6372      6371      6373
      6372      6371      6379      6373      6371      6379      6373      6374      6375
      6373      6374      6376      6374      6376      6377      6374      6376      6378
      6374      6376      6388      6375      6374      6376      6376      6388      6389
      6376      6388      6390      6376      6388      6391      6377      6376      6378
      6377      6376      6388      6378      6376      6388      6379      6382      6383
      6380      6379      6381      6380      6379      6382      6381      6379      6382
      6382      6383      6384      6382      6383      6385      6383      6385      6386
      6383      6385      6387      6383      6385      6432      6384      6383      6385
      6385      6432      6433      6385      6432      6434      6385      6432      6435
      6386      6385      6387      6386      6385      6432      6387      6385      6432
      6388      6391      6392      6388      6391      6393      6388      6391      6394
      6389      6388      6390      6389      6388      6391      6390      6388      6391
      6391      6394      6395      6391      6394      6396      6391      6394      6397
      6392      6391      6393      6392      6391      6394      6393      6391      6394
      6394      6397      6398      6394      6397      6399      6394      6397      6400
      6395      6394      6396      6395      6394      6397      6396      6394      6397
      6397      6400      6401      6397      6400      6402      6397      6400      6403
      6398      6397      6399      6398      6397      6400      6399      6397      6400
      6400      6403      6404      6400      6403      6405      6400      6403      6406
      6401      6400      6402      6401      6400      6403      6402      6400      6403
      6403      6406      6407      6403      6406      6408      6403      6406      6411
      6404      6403      6405      6404      6403      6406      6405      6403      6406
      6406      6408      6409      6406      6408      6410      6406      6408      6411
      6406      6411      6408      6406      6411      6412      6406      6411      6413
      6407      6406      6408      6407      6406      6411      6408      6406      6411
      6408      6411      6412      6408      6411      6413      6409      6408      6410
      6409      6408      6411      6410      6408      6411      6411      6413      6414
      6411      6413      6415      6411      6413      6416      6412      6411      6413
      6413      6416      6417      6413      6416      6418      6413      6416      6419
      6414      6413      6415      6414      6413      6416      6415      6413      6416
      6416      6419      6420      6416      6419      6421      6416      6419      6422
      6417      6416      6418      6417      6416      6419      6418      6416      6419
      6419      6422      6423      6419      6422      6424      6419      6422      6425
      6420      6419      6421      6420      6419      6422      6421      6419      6422
      6422      6425      6426      6422      6425      6427      6422      6425      6428
      6423      6422      6424      6423      6422      6425      6424      6422      6425
      6425      6428      6429      6425      6428      6430      6425      6428      6431
      6426      6425      6427      6426      6425      6428      6427      6425      6428
      6429      6428      6430      6429      6428      6431      6430      6428      6431
      6432      6435      6436      6432      6435      6437      6432      6435      6438
      6433      6432      6434      6433      6432      6435      6434      6432      6435
      6435      6438      6439      6435      6438      6440      6435      6438      6441
      6436      6435      6437      6436      6435      6438      6437      6435      6438
      6438      6441      6442      6438      6441      6443      6438      6441      6444
      6439      6438      6440      6439      6438      6441      6440      6438      6441
      6441      6444      6445      6441      6444      6446      6441      6444      6447
      6442      6441      6443      6442      6441      6444      6443      6441      6444
      6444      6447      6448      6444      6447      6449      6444      6447      6450
      6445      6444      6446      6445      6444      6447      6446      6444      6447
      6447      6450      6451      6447      6450      6452      6447      6450      6453
      6448      6447      6449      6448      6447      6450      6449      6447      6450
      6450      6453      6454      6450      6453      6455      6450      6453      6456
      6451      6450      6452      6451      6450      6453      6452      6450      6453
      6453      6456      6457      6453      6456      6458      6453      6456      6459
      6454      6453      6455      6454      6453      6456      6455      6453      6456
      6456      6459      6460      6456      6459      6461      6456      6459      6462
      6457      6456      6458      6457      6456      6459      6458      6456      6459
      6459      6462      6463      6459      6462      6464      6459      6462      6465
      6460      6459      6461      6460      6459      6462      6461      6459      6462
      6462      6465      6466      6462      6465      6467      6462      6465      6468
      6463      6462      6464      6463      6462      6465      6464      6462      6465
      6465      6468      6469      6465      6468      6470      6465      6468      6471
      6466      6465      6467      6466      6465      6468      6467      6465      6468
      6468      6471      6472      6468      6471      6473      6468      6471      6474
      6469      6468      6470      6469      6468      6471      6470      6468      6471
      6472      6471      6473      6472      6471      6474      6473      6471      6474
      6475      6479      6480      6475      6479      6481      6475      6479      6482
      6476      6475      6477      6476      6475      6478      6476      6475      6479
      6477      6475      6478      6477      6475      6479      6478      6475      6479
      6479      6482      6483      6479      6482      6484      6479      6482      6489
      6480      6479      6481      6480      6479      6482      6481      6479      6482
      6482      6489      6485      6483      6482      6484      6483      6482      6489
      6484      6482      6489      6485      6488      6490      6486      6485      6487
      6486      6485      6488      6486      6485      6489      6487      6485      6488
      6487      6485      6489      6488      6485      6489      6488      6490      6491
      6488      6490      6492      6488      6490      6493      6490      6493      6494
      6490      6493      6495      6490      6493      6501      6491      6490      6492
      6491      6490      6493      6492      6490      6493      6493      6495      6496
      6493      6501      6502      6493      6501      6503      6493      6501      6504
      6494      6493      6495      6494      6493      6501      6495      6493      6501
      6495      6496      6497      6495      6496      6498      6496      6498      6499
      6496      6498      6500      6496      6498      6510      6497      6496      6498
      6498      6510      6511      6498      6510      6512      6498      6510      6513
      6499      6498      6500      6499      6498      6510      6500      6498      6510
      6501      6504      6505      6502      6501      6503      6502      6501      6504
      6503      6501      6504      6504      6505      6506      6504      6505      6507
      6505      6507      6508      6505      6507      6509      6505      6507      6554
      6506      6505      6507      6507      6554      6555      6507      6554      6556
      6507      6554      6557      6508      6507      6509      6508      6507      6554
      6509      6507      6554      6510      6513      6514      6510      6513      6515
      6510      6513      6516      6511      6510      6512      6511      6510      6513
      6512      6510      6513      6513      6516      6517      6513      6516      6518
      6513      6516      6519      6514      6513      6515      6514      6513      6516
      6515      6513      6516      6516      6519      6520      6516      6519      6521
      6516      6519      6522      6517      6516      6518      6517      6516      6519
      6518      6516      6519      6519      6522      6523      6519      6522      6524
      6519      6522      6525      6520      6519      6521      6520      6519      6522
      6521      6519      6522      6522      6525      6526      6522      6525      6527
      6522      6525      6528      6523      6522      6524      6523      6522      6525
      6524      6522      6525      6525      6528      6529      6525      6528      6530
      6525      6528      6533      6526      6525      6527      6526      6525      6528
      6527      6525      6528      6528      6530      6531      6528      6530      6532
      6528      6530      6533      6528      6533      6530      6528      6533      6534
      6528      6533      6535      6529      6528      6530      6529      6528      6533
      6530      6528      6533      6530      6533      6534      6530      6533      6535
      6531      6530      6532      6531      6530      6533      6532      6530      6533
      6533      6535      6536      6533      6535      6537      6533      6535      6538
      6534      6533      6535      6535      6538      6539      6535      6538      6540
      6535      6538      6541      6536      6535      6537      6536      6535      6538
      6537      6535      6538      6538      6541      6542      6538      6541      6543
      6538      6541      6544      6539      6538      6540      6539      6538      6541
      6540      6538      6541      6541      6544      6545      6541      6544      6546
      6541      6544      6547      6542      6541      6543      6542      6541      6544
      6543      6541      6544      6544      6547      6548      6544      6547      6549
      6544      6547      6550      6545      6544      6546      6545      6544      6547
      6546      6544      6547      6547      6550      6551      6547      6550      6552
      6547      6550      6553      6548      6547      6549      6548      6547      6550
      6549      6547      6550      6551      6550      6552      6551      6550      6553
      6552      6550      6553      6554      6557      6558      6554      6557      6559
      6554      6557      6560      6555      6554      6556      6555      6554      6557
      6556      6554      6557      6557      6560      6561      6557      6560      6562
      6557      6560      6563      6558      6557      6559      6558      6557      6560
      6559      6557      6560      6560      6563      6564      6560      6563      6565
      6560      6563      6566      6561      6560      6562      6561      6560      6563
      6562      6560      6563      6563      6566      6567      6563      6566      6568
      6563      6566      6569      6564      6563      6565      6564      6563      6566
      6565      6563      6566      6566      6569      6570      6566      6569      6571
      6566      6569      6572      6567      6566      6568      6567      6566      6569
      6568      6566      6569      6569      6572      6573      6569      6572      6574
      6569      6572      6575      6570      6569      6571      6570      6569      6572
      6571      6569      6572      6572      6575      6576      6572      6575      6577
      6572      6575      6578      6573      6572      6574      6573      6572      6575
      6574      6572      6575      6575      6578      6579      6575      6578      6580
      6575      6578      6581      6576      6575      6577      6576      6575      6578
      6577      6575      6578      6578      6581      6582      6578      6581      6583
      6578      6581      6584      6579      6578      6580      6579      6578      6581
      6580      6578      6581      6581      6584      6585      6581      6584      6586
      6581      6584      6587      6582      6581      6583      6582      6581      6584
      6583      6581      6584      6584      6587      6588      6584      6587      6589
      6584      6587      6590      6585      6584      6586      6585      6584      6587
      6586      6584      6587      6587      6590      6591      6587      6590      6592
      6587      6590      6593      6588      6587      6589      6588      6587      6590
      6589      6587      6590      6590      6593      6594      6590      6593      6595
      6590      6593      6596      6591      6590      6592      6591      6590      6593
      6592      6590      6593      6594      6593      6595      6594      6593      6596
      6595      6593      6596      6597      6600      6601      6597      6602      6603
      6597      6602      6604      6597      6602      6606      6598      6597      6599
      6598      6597      6600      6598      6597      6602      6599      6597      6600
      6599      6597      6602      6600      6597      6602      6602      6604      6605
      6602      6606      6607      6602      6606      6608      6602      6606      6613
      6603      6602      6604      6603      6602      6606      6604      6602      6606
      6606      6613      6609      6607      6606      6608      6607      6606      6613
      6608      6606      6613      6609      6612      6614      6610      6609      6611
      6610      6609      6612      6610      6609      6613      6611      6609      6612
      6611      6609      6613      6612      6609      6613      6612      6614      6615
      6612      6614      6616      6612      6614      6617      6614      6617      6618
      6614      6617      6619      6614      6617      6625      6615      6614      6616
      6615      6614      6617      6616      6614      6617      6617      6619      6620
      6617      6625      6626      6617      6625      6627      6617      6625      6628
      6618      6617      6619      6618      6617      6625      6619      6617      6625
      6619      6620      6621      6619      6620      6622      6620      6622      6623
      6620      6622      6624      6620      6622      6634      6621      6620      6622
      6622      6634      6635      6622      6634      6636      6622      6634      6637
      6623      6622      6624      6623      6622      6634      6624      6622      6634
      6625      6628      6629      6626      6625      6627      6626      6625      6628
      6627      6625      6628      6628      6629      6630      6628      6629      6631
      6629      6631      6632      6629      6631      6633      6629      6631      6678
      6630      6629      6631      6631      6678      6679      6631      6678      6680
      6631      6678      6681      6632      6631      6633      6632      6631      6678
      6633      6631      6678      6634      6637      6638      6634      6637      6639
      6634      6637      6640      6635      6634      6636      6635      6634      6637
      6636      6634      6637      6637      6640      6641      6637      6640      6642
      6637      6640      6643      6638      6637      6639      6638      6637      6640
      6639      6637      6640      6640      6643      6644      6640      6643      6645
      6640      6643      6646      6641      6640      6642      6641      6640      6643
      6642      6640      6643      6643      6646      6647      6643      6646      6648
      6643      6646      6649      6644      6643      6645      6644      6643      6646
      6645      6643      6646      6646      6649      6650      6646      6649      6651
      6646      6649      6652      6647      6646      6648      6647      6646      6649
      6648      6646      6649      6649      6652      6653      6649      6652      6654
      6649      6652      6657      6650      6649      6651      6650      6649      6652
      6651      6649      6652      6652      6654      6655      6652      6654      6656
      6652      6654      6657      6652      6657      6654      6652      6657      6658
      6652      6657      6659      6653      6652      6654      6653      6652      6657
      6654      6652      6657      6654      6657      6658      6654      6657      6659
      6655      6654      6656      6655      6654      6657      6656      6654      6657
      6657      6659      6660      6657      6659      6661      6657      6659      6662
      6658      6657      6659      6659      6662      6663      6659      6662      6664
      6659      6662      6665      6660      6659      6661      6660      6659      6662
      6661      6659      6662      6662      6665      6666      6662      6665      6667
      6662      6665      6668      6663      6662      6664      6663      6662      6665
      6664      6662      6665      6665      6668      6669      6665      6668      6670
      6665      6668      6671      6666      6665      6667      6666      6665      6668
      6667      6665      6668      6668      6671      6672      6668      6671      6673
      6668      6671      6674      6669      6668      6670      6669      6668      6671
      6670      6668      6671      6671      6674      6675      6671      6674      6676
      6671      6674      6677      6672      6671      6673      6672      6671      6674
      6673      6671      6674      6675      6674      6676      6675      6674      6677
      6676      6674      6677      6678      6681      6682      6678      6681      6683
      6678      6681      6684      6679      6678      6680      6679      6678      6681
      6680      6678      6681      6681      6684      6685      6681      6684      6686
      6681      6684      6687      6682      6681      6683      6682      6681      6684
      6683      6681      6684      6684      6687      6688      6684      6687      6689
      6684      6687      6690      6685      6684      6686      6685      6684      6687
      6686      6684      6687      6687      6690      6691      6687      6690      6692
      6687      6690      6693      6688      6687      6689      6688      6687      6690
      6689      6687      6690      6690      6693      6694      6690      6693      6695
      6690      6693      6696      6691      6690      6692      6691      6690      6693
      6692      6690      6693      6693      6696      6697      6693      6696      6698
      6693      6696      6699      6694      6693      6695      6694      6693      6696
      6695      6693      6696      6696      6699      6700      6696      6699      6701
      6696      6699      6702      6697      6696      6698      6697      6696      6699
      6698      6696      6699      6699      6702      6703      6699      6702      6704
      6699      6702      6705      6700      6699      6701      6700      6699      6702
      6701      6699      6702      6702      6705      6706      6702      6705      6707
      6702      6705      6708      6703      6702      6704      6703      6702      6705
      6704      6702      6705      6705      6708      6709      6705      6708      6710
      6705      6708      6711      6706      6705      6707      6706      6705      6708
      6707      6705      6708      6708      6711      6712      6708      6711      6713
      6708      6711      6714      6709      6708      6710      6709      6708      6711
      6710      6708      6711      6711      6714      6715      6711      6714      6716
      6711      6714      6717      6712      6711      6713      6712      6711      6714
      6713      6711      6714      6714      6717      6718      6714      6717      6719
      6714      6717      6720      6715      6714      6716      6715      6714      6717
      6716      6714      6717      6718      6717      6719      6718      6717      6720
      6719      6717      6720      6721      6724      6725      6721      6726      6727
      6721      6726      6728      6721      6726      6730      6722      6721      6723
      6722      6721      6724      6722      6721      6726      6723      6721      6724
      6723      6721      6726      6724      6721      6726      6726      6728      6729
      6726      6730      6731      6726      6730      6732      6726      6730      6737
      6727      6726      6728      6727      6726      6730      6728      6726      6730
      6730      6737      6733      6731      6730      6732      6731      6730      6737
      6732      6730      6737      6733      6736      6738      6734      6733      6735
      6734      6733      6736      6734      6733      6737      6735      6733      6736
      6735      6733      6737      6736      6733      6737      6736      6738      6739
      6736      6738      6740      6736      6738      6741      6738      6741      6742
      6738      6741      6743      6738      6741      6749      6739      6738      6740
      6739      6738      6741      6740      6738      6741      6741      6743      6744
      6741      6749      6750      6741      6749      6751      6741      6749      6752
      6742      6741      6743      6742      6741      6749      6743      6741      6749
      6743      6744      6745      6743      6744      6746      6744      6746      6747
      6744      6746      6748      6744      6746      6758      6745      6744      6746
      6746      6758      6759      6746      6758      6760      6746      6758      6761
      6747      6746      6748      6747      6746      6758      6748      6746      6758
      6749      6752      6753      6750      6749      6751      6750      6749      6752
      6751      6749      6752      6752      6753      6754      6752      6753      6755
      6753      6755      6756      6753      6755      6757      6753      6755      6799
      6754      6753      6755      6755      6799      6800      6755      6799      6801
      6755      6799      6802      6756      6755      6757      6756      6755      6799
      6757      6755      6799      6758      6761      6762      6758      6761      6763
      6758      6761      6764      6759      6758      6760      6759      6758      6761
      6760      6758      6761      6761      6764      6765      6761      6764      6766
      6761      6764      6767      6762      6761      6763      6762      6761      6764
      6763      6761      6764      6764      6767      6768      6764      6767      6769
      6764      6767      6770      6765      6764      6766      6765      6764      6767
      6766      6764      6767      6767      6770      6771      6767      6770      6772
      6767      6770      6773      6768      6767      6769      6768      6767      6770
      6769      6767      6770      6770      6773      6774      6770      6773      6775
      6770      6773      6776      6771      6770      6772      6771      6770      6773
      6772      6770      6773      6773      6776      6777      6773      6776      6778
      6774      6773      6775      6774      6773      6776      6775      6773      6776
      6776      6778      6779      6776      6778      6780      6777      6776      6778
      6778      6780      6781      6778      6780      6782      6778      6780      6783
      6779      6778      6780      6780      6783      6784      6780      6783      6785
      6780      6783      6786      6781      6780      6782      6781      6780      6783
      6782      6780      6783      6783      6786      6787      6783      6786      6788
      6783      6786      6789      6784      6783      6785      6784      6783      6786
      6785      6783      6786      6786      6789      6790      6786      6789      6791
      6786      6789      6792      6787      6786      6788      6787      6786      6789
      6788      6786      6789      6789      6792      6793      6789      6792      6794
      6789      6792      6795      6790      6789      6791      6790      6789      6792
      6791      6789      6792      6792      6795      6796      6792      6795      6797
      6792      6795      6798      6793      6792      6794      6793      6792      6795
      6794      6792      6795      6796      6795      6797      6796      6795      6798
      6797      6795      6798      6799      6802      6803      6799      6802      6804
      6799      6802      6805      6800      6799      6801      6800      6799      6802
      6801      6799      6802      6802      6805      6806      6802      6805      6807
      6802      6805      6808      6803      6802      6804      6803      6802      6805
      6804      6802      6805      6805      6808      6809      6805      6808      6810
      6805      6808      6811      6806      6805      6807      6806      6805      6808
      6807      6805      6808      6808      6811      6812      6808      6811      6813
      6808      6811      6814      6809      6808      6810      6809      6808      6811
      6810      6808      6811      6811      6814      6815      6811      6814      6816
      6811      6814      6817      6812      6811      6813      6812      6811      6814
      6813      6811      6814      6814      6817      6818      6814      6817      6819
      6814      6817      6820      6815      6814      6816      6815      6814      6817
      6816      6814      6817      6817      6820      6821      6817      6820      6822
      6817      6820      6823      6818      6817      6819      6818      6817      6820
      6819      6817      6820      6820      6823      6824      6820      6823      6825
      6820      6823      6826      6821      6820      6822      6821      6820      6823
      6822      6820      6823      6823      6826      6827      6823      6826      6828
      6823      6826      6829      6824      6823      6825      6824      6823      6826
      6825      6823      6826      6826      6829      6830      6826      6829      6831
      6826      6829      6832      6827      6826      6828      6827      6826      6829
      6828      6826      6829      6829      6832      6833      6829      6832      6834
      6829      6832      6835      6830      6829      6831      6830      6829      6832
      6831      6829      6832      6832      6835      6836      6832      6835      6837
      6832      6835      6838      6833      6832      6834      6833      6832      6835
      6834      6832      6835      6835      6838      6839      6835      6838      6840
      6835      6838      6841      6836      6835      6837      6836      6835      6838
      6837      6835      6838      6839      6838      6840      6839      6838      6841
      6840      6838      6841      6842      6846      6847      6842      6846      6848
      6842      6846      6849      6843      6842      6844      6843      6842      6845
      6843      6842      6846      6844      6842      6845      6844      6842      6846
      6845      6842      6846      6846      6849      6850      6846      6849      6851
      6846      6849      6856      6847      6846      6848      6847      6846      6849
      6848      6846      6849      6849      6856      6852      6850      6849      6851
      6850      6849      6856      6851      6849      6856      6852      6855      6857
      6853      6852      6854      6853      6852      6855      6853      6852      6856
      6854      6852      6855      6854      6852      6856      6855      6852      6856
      6855      6857      6858      6855      6857      6859      6855      6857      6860
      6857      6860      6861      6857      6860      6862      6857      6860      6868
      6858      6857      6859      6858      6857      6860      6859      6857      6860
      6860      6862      6863      6860      6868      6869      6860      6868      6870
      6860      6868      6871      6861      6860      6862      6861      6860      6868
      6862      6860      6868      6862      6863      6864      6862      6863      6865
      6863      6865      6866      6863      6865      6867      6863      6865      6877
      6864      6863      6865      6865      6877      6878      6865      6877      6879
      6865      6877      6880      6866      6865      6867      6866      6865      6877
      6867      6865      6877      6868      6871      6872      6869      6868      6870
      6869      6868      6871      6870      6868      6871      6871      6872      6873
      6871      6872      6874      6872      6874      6875      6872      6874      6876
      6872      6874      6921      6873      6872      6874      6874      6921      6922
      6874      6921      6923      6874      6921      6924      6875      6874      6876
      6875      6874      6921      6876      6874      6921      6877      6880      6881
      6877      6880      6882      6877      6880      6883      6878      6877      6879
      6878      6877      6880      6879      6877      6880      6880      6883      6884
      6880      6883      6885      6880      6883      6886      6881      6880      6882
      6881      6880      6883      6882      6880      6883      6883      6886      6887
      6883      6886      6888      6883      6886      6889      6884      6883      6885
      6884      6883      6886      6885      6883      6886      6886      6889      6890
      6886      6889      6891      6886      6889      6892      6887      6886      6888
      6887      6886      6889      6888      6886      6889      6889      6892      6893
      6889      6892      6894      6889      6892      6895      6890      6889      6891
      6890      6889      6892      6891      6889      6892      6892      6895      6896
      6892      6895      6897      6892      6895      6900      6893      6892      6894
      6893      6892      6895      6894      6892      6895      6895      6897      6898
      6895      6897      6899      6895      6897      6900      6895      6900      6897
      6895      6900      6901      6895      6900      6902      6896      6895      6897
      6896      6895      6900      6897      6895      6900      6897      6900      6901
      6897      6900      6902      6898      6897      6899      6898      6897      6900
      6899      6897      6900      6900      6902      6903      6900      6902      6904
      6900      6902      6905      6901      6900      6902      6902      6905      6906
      6902      6905      6907      6902      6905      6908      6903      6902      6904
      6903      6902      6905      6904      6902      6905      6905      6908      6909
      6905      6908      6910      6905      6908      6911      6906      6905      6907
      6906      6905      6908      6907      6905      6908      6908      6911      6912
      6908      6911      6913      6908      6911      6914      6909      6908      6910
      6909      6908      6911      6910      6908      6911      6911      6914      6915
      6911      6914      6916      6911      6914      6917      6912      6911      6913
      6912      6911      6914      6913      6911      6914      6914      6917      6918
      6914      6917      6919      6914      6917      6920      6915      6914      6916
      6915      6914      6917      6916      6914      6917      6918      6917      6919
      6918      6917      6920      6919      6917      6920      6921      6924      6925
      6921      6924      6926      6921      6924      6927      6922      6921      6923
      6922      6921      6924      6923      6921      6924      6924      6927      6928
      6924      6927      6929      6924      6927      6930      6925      6924      6926
      6925      6924      6927      6926      6924      6927      6927      6930      6931
      6927      6930      6932      6927      6930      6933      6928      6927      6929
      6928      6927      6930      6929      6927      6930      6930      6933      6934
      6930      6933      6935      6930      6933      6936      6931      6930      6932
      6931      6930      6933      6932      6930      6933      6933      6936      6937
      6933      6936      6938      6933      6936      6939      6934      6933      6935
      6934      6933      6936      6935      6933      6936      6936      6939      6940
      6936      6939      6941      6936      6939      6942      6937      6936      6938
      6937      6936      6939      6938      6936      6939      6939      6942      6943
      6939      6942      6944      6939      6942      6945      6940      6939      6941
      6940      6939      6942      6941      6939      6942      6942      6945      6946
      6942      6945      6947      6942      6945      6948      6943      6942      6944
      6943      6942      6945      6944      6942      6945      6945      6948      6949
      6945      6948      6950      6945      6948      6951      6946      6945      6947
      6946      6945      6948      6947      6945      6948      6948      6951      6952
      6948      6951      6953      6948      6951      6954      6949      6948      6950
      6949      6948      6951      6950      6948      6951      6951      6954      6955
      6951      6954      6956      6951      6954      6957      6952      6951      6953
      6952      6951      6954      6953      6951      6954      6954      6957      6958
      6954      6957      6959      6954      6957      6960      6955      6954      6956
      6955      6954      6957      6956      6954      6957      6957      6960      6961
      6957      6960      6962      6957      6960      6963      6958      6957      6959
      6958      6957      6960      6959      6957      6960      6961      6960      6962
      6961      6960      6963      6962      6960      6963      6964      6968      6969
      6964      6968      6970      6964      6968      6971      6965      6964      6966
      6965      6964      6967      6965      6964      6968      6966      6964      6967
      6966      6964      6968      6967      6964      6968      6968      6971      6972
      6968      6971      6973      6968      6971      6978      6969      6968      6970
      6969      6968      6971      6970      6968      6971      6971      6978      6974
      6972      6971      6973      6972      6971      6978      6973      6971      6978
      6974      6977      6979      6975      6974      6976      6975      6974      6977
      6975      6974      6978      6976      6974      6977      6976      6974      6978
      6977      6974      6978      6977      6979      6980      6977      6979      6981
      6977      6979      6982      6979      6982      6983      6979      6982      6984
      6979      6982      6990      6980      6979      6981      6980      6979      6982
      6981      6979      6982      6982      6984      6985      6982      6990      6991
      6982      6990      6992      6982      6990      6993      6983      6982      6984
      6983      6982      6990      6984      6982      6990      6984      6985      6986
      6984      6985      6987      6985      6987      6988      6985      6987      6989
      6985      6987      6999      6986      6985      6987      6987      6999      7000
      6987      6999      7001      6987      6999      7002      6988      6987      6989
      6988      6987      6999      6989      6987      6999      6990      6993      6994
      6991      6990      6992      6991      6990      6993      6992      6990      6993
      6993      6994      6995      6993      6994      6996      6994      6996      6997
      6994      6996      6998      6994      6996      7043      6995      6994      6996
      6996      7043      7044      6996      7043      7045      6996      7043      7046
      6997      6996      6998      6997      6996      7043      6998      6996      7043
      6999      7002      7003      6999      7002      7004      6999      7002      7005
      7000      6999      7001      7000      6999      7002      7001      6999      7002
      7002      7005      7006      7002      7005      7007      7002      7005      7008
      7003      7002      7004      7003      7002      7005      7004      7002      7005
      7005      7008      7009      7005      7008      7010      7005      7008      7011
      7006      7005      7007      7006      7005      7008      7007      7005      7008
      7008      7011      7012      7008      7011      7013      7008      7011      7014
      7009      7008      7010      7009      7008      7011      7010      7008      7011
      7011      7014      7015      7011      7014      7016      7011      7014      7017
      7012      7011      7013      7012      7011      7014      7013      7011      7014
      7014      7017      7018      7014      7017      7019      7014      7017      7022
      7015      7014      7016      7015      7014      7017      7016      7014      7017
      7017      7019      7020      7017      7019      7021      7017      7019      7022
      7017      7022      7019      7017      7022      7023      7017      7022      7024
      7018      7017      7019      7018      7017      7022      7019      7017      7022
      7019      7022      7023      7019      7022      7024      7020      7019      7021
      7020      7019      7022      7021      7019      7022      7022      7024      7025
      7022      7024      7026      7022      7024      7027      7023      7022      7024
      7024      7027      7028      7024      7027      7029      7024      7027      7030
      7025      7024      7026      7025      7024      7027      7026      7024      7027
      7027      7030      7031      7027      7030      7032      7027      7030      7033
      7028      7027      7029      7028      7027      7030      7029      7027      7030
      7030      7033      7034      7030      7033      7035      7030      7033      7036
      7031      7030      7032      7031      7030      7033      7032      7030      7033
      7033      7036      7037      7033      7036      7038      7033      7036      7039
      7034      7033      7035      7034      7033      7036      7035      7033      7036
      7036      7039      7040      7036      7039      7041      7036      7039      7042
      7037      7036      7038      7037      7036      7039      7038      7036      7039
      7040      7039      7041      7040      7039      7042      7041      7039      7042
      7043      7046      7047      7043      7046      7048      7043      7046      7049
      7044      7043      7045      7044      7043      7046      7045      7043      7046
      7046      7049      7050      7046      7049      7051      7046      7049      7052
      7047      7046      7048      7047      7046      7049      7048      7046      7049
      7049      7052      7053      7049      7052      7054      7049      7052      7055
      7050      7049      7051      7050      7049      7052      7051      7049      7052
      7052      7055      7056      7052      7055      7057      7052      7055      7058
      7053      7052      7054      7053      7052      7055      7054      7052      7055
      7055      7058      7059      7055      7058      7060      7055      7058      7061
      7056      7055      7057      7056      7055      7058      7057      7055      7058
      7058      7061      7062      7058      7061      7063      7058      7061      7064
      7059      7058      7060      7059      7058      7061      7060      7058      7061
      7061      7064      7065      7061      7064      7066      7061      7064      7067
      7062      7061      7063      7062      7061      7064      7063      7061      7064
      7064      7067      7068      7064      7067      7069      7064      7067      7070
      7065      7064      7066      7065      7064      7067      7066      7064      7067
      7067      7070      7071      7067      7070      7072      7067      7070      7073
      7068      7067      7069      7068      7067      7070      7069      7067      7070
      7070      7073      7074      7070      7073      7075      7070      7073      7076
      7071      7070      7072      7071      7070      7073      7072      7070      7073
      7073      7076      7077      7073      7076      7078      7073      7076      7079
      7074      7073      7075      7074      7073      7076      7075      7073      7076
      7076      7079      7080      7076      7079      7081      7076      7079      7082
      7077      7076      7078      7077      7076      7079      7078      7076      7079
      7080      7079      7081      7080      7079      7082      7081      7079      7082
      7083      7087      7088      7083      7087      7089      7083      7087      7090
      7084      7083      7085      7084      7083      7086      7084      7083      7087
      7085      7083      7086      7085      7083      7087      7086      7083      7087
      7087      7090      7091      7087      7090      7092      7087      7090      7097
      7088      7087      7089      7088      7087      7090      7089      7087      7090
      7090      7097      7093      7091      7090      7092      7091      7090      7097
      7092      7090      7097      7093      7096      7098      7094      7093      7095
      7094      7093      7096      7094      7093      7097      7095      7093      7096
      7095      7093      7097      7096      7093      7097      7096      7098      7099
      7096      7098      7100      7096      7098      7101      7098      7101      7102
      7098      7101      7103      7098      7101      7109      7099      7098      7100
      7099      7098      7101      7100      7098      7101      7101      7103      7104
      7101      7109      7110      7101      7109      7111      7101      7109      7112
      7102      7101      7103      7102      7101      7109      7103      7101      7109
      7103      7104      7105      7103      7104      7106      7104      7106      7107
      7104      7106      7108      7104      7106      7118      7105      7104      7106
      7106      7118      7119      7106      7118      7120      7106      7118      7121
      7107      7106      7108      7107      7106      7118      7108      7106      7118
      7109      7112      7113      7110      7109      7111      7110      7109      7112
      7111      7109      7112      7112      7113      7114      7112      7113      7115
      7113      7115      7116      7113      7115      7117      7113      7115      7162
      7114      7113      7115      7115      7162      7163      7115      7162      7164
      7115      7162      7165      7116      7115      7117      7116      7115      7162
      7117      7115      7162      7118      7121      7122      7118      7121      7123
      7118      7121      7124      7119      7118      7120      7119      7118      7121
      7120      7118      7121      7121      7124      7125      7121      7124      7126
      7121      7124      7127      7122      7121      7123      7122      7121      7124
      7123      7121      7124      7124      7127      7128      7124      7127      7129
      7124      7127      7130      7125      7124      7126      7125      7124      7127
      7126      7124      7127      7127      7130      7131      7127      7130      7132
      7127      7130      7133      7128      7127      7129      7128      7127      7130
      7129      7127      7130      7130      7133      7134      7130      7133      7135
      7130      7133      7136      7131      7130      7132      7131      7130      7133
      7132      7130      7133      7133      7136      7137      7133      7136      7138
      7133      7136      7141      7134      7133      7135      7134      7133      7136
      7135      7133      7136      7136      7138      7139      7136      7138      7140
      7136      7138      7141      7136      7141      7138      7136      7141      7142
      7136      7141      7143      7137      7136      7138      7137      7136      7141
      7138      7136      7141      7138      7141      7142      7138      7141      7143
      7139      7138      7140      7139      7138      7141      7140      7138      7141
      7141      7143      7144      7141      7143      7145      7141      7143      7146
      7142      7141      7143      7143      7146      7147      7143      7146      7148
      7143      7146      7149      7144      7143      7145      7144      7143      7146
      7145      7143      7146      7146      7149      7150      7146      7149      7151
      7146      7149      7152      7147      7146      7148      7147      7146      7149
      7148      7146      7149      7149      7152      7153      7149      7152      7154
      7149      7152      7155      7150      7149      7151      7150      7149      7152
      7151      7149      7152      7152      7155      7156      7152      7155      7157
      7152      7155      7158      7153      7152      7154      7153      7152      7155
      7154      7152      7155      7155      7158      7159      7155      7158      7160
      7155      7158      7161      7156      7155      7157      7156      7155      7158
      7157      7155      7158      7159      7158      7160      7159      7158      7161
      7160      7158      7161      7162      7165      7166      7162      7165      7167
      7162      7165      7168      7163      7162      7164      7163      7162      7165
      7164      7162      7165      7165      7168      7169      7165      7168      7170
      7165      7168      7171      7166      7165      7167      7166      7165      7168
      7167      7165      7168      7168      7171      7172      7168      7171      7173
      7168      7171      7174      7169      7168      7170      7169      7168      7171
      7170      7168      7171      7171      7174      7175      7171      7174      7176
      7171      7174      7177      7172      7171      7173      7172      7171      7174
      7173      7171      7174      7174      7177      7178      7174      7177      7179
      7174      7177      7180      7175      7174      7176      7175      7174      7177
      7176      7174      7177      7177      7180      7181      7177      7180      7182
      7177      7180      7183      7178      7177      7179      7178      7177      7180
      7179      7177      7180      7180      7183      7184      7180      7183      7185
      7180      7183      7186      7181      7180      7182      7181      7180      7183
      7182      7180      7183      7183      7186      7187      7183      7186      7188
      7183      7186      7189      7184      7183      7185      7184      7183      7186
      7185      7183      7186      7186      7189      7190      7186      7189      7191
      7186      7189      7192      7187      7186      7188      7187      7186      7189
      7188      7186      7189      7189      7192      7193      7189      7192      7194
      7189      7192      7195      7190      7189      7191      7190      7189      7192
      7191      7189      7192      7192      7195      7196      7192      7195      7197
      7192      7195      7198      7193      7192      7194      7193      7192      7195
      7194      7192      7195      7195      7198      7199      7195      7198      7200
      7195      7198      7201      7196      7195      7197      7196      7195      7198
      7197      7195      7198      7199      7198      7200      7199      7198      7201
      7200      7198      7201      7202      7206      7207      7202      7206      7208
      7202      7206      7209      7203      7202      7204      7203      7202      7205
      7203      7202      7206      7204      7202      7205      7204      7202      7206
      7205      7202      7206      7206      7209      7210      7206      7209      7211
      7206      7209      7216      7207      7206      7208      7207      7206      7209
      7208      7206      7209      7209      7216      7212      7210      7209      7211
      7210      7209      7216      7211      7209      7216      7212      7215      7217
      7213      7212      7214      7213      7212      7215      7213      7212      7216
      7214      7212      7215      7214      7212      7216      7215      7212      7216
      7215      7217      7218      7215      7217      7219      7215      7217      7220
      7217      7220      7221      7217      7220      7222      7217      7220      7228
      7218      7217      7219      7218      7217      7220      7219      7217      7220
      7220      7222      7223      7220      7228      7229      7220      7228      7230
      7220      7228      7231      7221      7220      7222      7221      7220      7228
      7222      7220      7228      7222      7223      7224      7222      7223      7225
      7223      7225      7226      7223      7225      7227      7223      7225      7237
      7224      7223      7225      7225      7237      7238      7225      7237      7239
      7225      7237      7240      7226      7225      7227      7226      7225      7237
      7227      7225      7237      7228      7231      7232      7229      7228      7230
      7229      7228      7231      7230      7228      7231      7231      7232      7233
      7231      7232      7234      7232      7234      7235      7232      7234      7236
      7232      7234      7281      7233      7232      7234      7234      7281      7282
      7234      7281      7283      7234      7281      7284      7235      7234      7236
      7235      7234      7281      7236      7234      7281      7237      7240      7241
      7237      7240      7242      7237      7240      7243      7238      7237      7239
      7238      7237      7240      7239      7237      7240      7240      7243      7244
      7240      7243      7245      7240      7243      7246      7241      7240      7242
      7241      7240      7243      7242      7240      7243      7243      7246      7247
      7243      7246      7248      7243      7246      7249      7244      7243      7245
      7244      7243      7246      7245      7243      7246      7246      7249      7250
      7246      7249      7251      7246      7249      7252      7247      7246      7248
      7247      7246      7249      7248      7246      7249      7249      7252      7253
      7249      7252      7254      7249      7252      7255      7250      7249      7251
      7250      7249      7252      7251      7249      7252      7252      7255      7256
      7252      7255      7257      7252      7255      7260      7253      7252      7254
      7253      7252      7255      7254      7252      7255      7255      7257      7258
      7255      7257      7259      7255      7257      7260      7255      7260      7257
      7255      7260      7261      7255      7260      7262      7256      7255      7257
      7256      7255      7260      7257      7255      7260      7257      7260      7261
      7257      7260      7262      7258      7257      7259      7258      7257      7260
      7259      7257      7260      7260      7262      7263      7260      7262      7264
      7260      7262      7265      7261      7260      7262      7262      7265      7266
      7262      7265      7267      7262      7265      7268      7263      7262      7264
      7263      7262      7265      7264      7262      7265      7265      7268      7269
      7265      7268      7270      7265      7268      7271      7266      7265      7267
      7266      7265      7268      7267      7265      7268      7268      7271      7272
      7268      7271      7273      7268      7271      7274      7269      7268      7270
      7269      7268      7271      7270      7268      7271      7271      7274      7275
      7271      7274      7276      7271      7274      7277      7272      7271      7273
      7272      7271      7274      7273      7271      7274      7274      7277      7278
      7274      7277      7279      7274      7277      7280      7275      7274      7276
      7275      7274      7277      7276      7274      7277      7278      7277      7279
      7278      7277      7280      7279      7277      7280      7281      7284      7285
      7281      7284      7286      7281      7284      7287      7282      7281      7283
      7282      7281      7284      7283      7281      7284      7284      7287      7288
      7284      7287      7289      7284      7287      7290      7285      7284      7286
      7285      7284      7287      7286      7284      7287      7287      7290      7291
      7287      7290      7292      7287      7290      7293      7288      7287      7289
      7288      7287      7290      7289      7287      7290      7290      7293      7294
      7290      7293      7295      7290      7293      7296      7291      7290      7292
      7291      7290      7293      7292      7290      7293      7293      7296      7297
      7293      7296      7298      7293      7296      7299      7294      7293      7295
      7294      7293      7296      7295      7293      7296      7296      7299      7300
      7296      7299      7301      7296      7299      7302      7297      7296      7298
      7297      7296      7299      7298      7296      7299      7299      7302      7303
      7299      7302      7304      7299      7302      7305      7300      7299      7301
      7300      7299      7302      7301      7299      7302      7302      7305      7306
      7302      7305      7307      7302      7305      7308      7303      7302      7304
      7303      7302      7305      7304      7302      7305      7305      7308      7309
      7305      7308      7310      7305      7308      7311      7306      7305      7307
      7306      7305      7308      7307      7305      7308      7308      7311      7312
      7308      7311      7313      7308      7311      7314      7309      7308      7310
      7309      7308      7311      7310      7308      7311      7311      7314      7315
      7311      7314      7316      7311      7314      7317      7312      7311      7313
      7312      7311      7314      7313      7311      7314      7314      7317      7318
      7314      7317      7319      7314      7317      7320      7315      7314      7316
      7315      7314      7317      7316      7314      7317      7318      7317      7319
      7318      7317      7320      7319      7317      7320      7321      7325      7326
      7321      7325      7327      7321      7325      7328      7322      7321      7323
      7322      7321      7324      7322      7321      7325      7323      7321      7324
      7323      7321      7325      7324      7321      7325      7325      7328      7329
      7325      7328      7330      7325      7328      7335      7326      7325      7327
      7326      7325      7328      7327      7325      7328      7328      7335      7331
      7329      7328      7330      7329      7328      7335      7330      7328      7335
      7331      7334      7336      7332      7331      7333      7332      7331      7334
      7332      7331      7335      7333      7331      7334      7333      7331      7335
      7334      7331      7335      7334      7336      7337      7334      7336      7338
      7334      7336      7339      7336      7339      7340      7336      7339      7341
      7336      7339      7347      7337      7336      7338      7337      7336      7339
      7338      7336      7339      7339      7341      7342      7339      7347      7348
      7339      7347      7349      7339      7347      7350      7340      7339      7341
      7340      7339      7347      7341      7339      7347      7341      7342      7343
      7341      7342      7344      7342      7344      7345      7342      7344      7346
      7342      7344      7356      7343      7342      7344      7344      7356      7357
      7344      7356      7358      7344      7356      7359      7345      7344      7346
      7345      7344      7356      7346      7344      7356      7347      7350      7351
      7348      7347      7349      7348      7347      7350      7349      7347      7350
      7350      7351      7352      7350      7351      7353      7351      7353      7354
      7351      7353      7355      7351      7353      7403      7352      7351      7353
      7353      7403      7404      7353      7403      7405      7353      7403      7406
      7354      7353      7355      7354      7353      7403      7355      7353      7403
      7356      7359      7360      7356      7359      7361      7356      7359      7362
      7357      7356      7358      7357      7356      7359      7358      7356      7359
      7359      7362      7363      7359      7362      7364      7359      7362      7365
      7360      7359      7361      7360      7359      7362      7361      7359      7362
      7362      7365      7366      7362      7365      7367      7362      7365      7368
      7363      7362      7364      7363      7362      7365      7364      7362      7365
      7365      7368      7369      7365      7368      7370      7365      7368      7371
      7366      7365      7367      7366      7365      7368      7367      7365      7368
      7368      7371      7372      7368      7371      7373      7368      7371      7374
      7369      7368      7370      7369      7368      7371      7370      7368      7371
      7371      7374      7375      7371      7374      7376      7372      7371      7373
      7372      7371      7374      7373      7371      7374      7374      7376      7377
      7374      7376      7378      7375      7374      7376      7376      7378      7379
      7376      7378      7380      7376      7378      7381      7377      7376      7378
      7378      7381      7382      7378      7381      7383      7378      7381      7384
      7379      7378      7380      7379      7378      7381      7380      7378      7381
      7381      7384      7385      7381      7384      7386      7381      7384      7387
      7382      7381      7383      7382      7381      7384      7383      7381      7384
      7384      7387      7388      7384      7387      7389      7384      7387      7390
      7385      7384      7386      7385      7384      7387      7386      7384      7387
      7387      7390      7391      7387      7390      7392      7387      7390      7393
      7388      7387      7389      7388      7387      7390      7389      7387      7390
      7390      7393      7394      7390      7393      7395      7390      7393      7396
      7391      7390      7392      7391      7390      7393      7392      7390      7393
      7393      7396      7397      7393      7396      7398      7393      7396      7399
      7394      7393      7395      7394      7393      7396      7395      7393      7396
      7396      7399      7400      7396      7399      7401      7396      7399      7402
      7397      7396      7398      7397      7396      7399      7398      7396      7399
      7400      7399      7401      7400      7399      7402      7401      7399      7402
      7403      7406      7407      7403      7406      7408      7403      7406      7409
      7404      7403      7405      7404      7403      7406      7405      7403      7406
      7406      7409      7410      7406      7409      7411      7406      7409      7412
      7407      7406      7408      7407      7406      7409      7408      7406      7409
      7409      7412      7413      7409      7412      7414      7409      7412      7415
      7410      7409      7411      7410      7409      7412      7411      7409      7412
      7412      7415      7416      7412      7415      7417      7412      7415      7418
      7413      7412      7414      7413      7412      7415      7414      7412      7415
      7415      7418      7419      7415      7418      7420      7415      7418      7421
      7416      7415      7417      7416      7415      7418      7417      7415      7418
      7418      7421      7422      7418      7421      7423      7418      7421      7424
      7419      7418      7420      7419      7418      7421      7420      7418      7421
      7421      7424      7425      7421      7424      7426      7421      7424      7427
      7422      7421      7423      7422      7421      7424      7423      7421      7424
      7424      7427      7428      7424      7427      7429      7424      7427      7430
      7425      7424      7426      7425      7424      7427      7426      7424      7427
      7427      7430      7431      7427      7430      7432      7427      7430      7433
      7428      7427      7429      7428      7427      7430      7429      7427      7430
      7430      7433      7434      7430      7433      7435      7430      7433      7436
      7431      7430      7432      7431      7430      7433      7432      7430      7433
      7433      7436      7437      7433      7436      7438      7433      7436      7439
      7434      7433      7435      7434      7433      7436      7435      7433      7436
      7436      7439      7440      7436      7439      7441      7436      7439      7442
      7437      7436      7438      7437      7436      7439      7438      7436      7439
      7439      7442      7443      7439      7442      7444      7439      7442      7445
      7440      7439      7441      7440      7439      7442      7441      7439      7442
      7443      7442      7444      7443      7442      7445      7444      7442      7445
      7446      7450      7451      7446      7450      7452      7446      7450      7453
      7447      7446      7448      7447      7446      7449      7447      7446      7450
      7448      7446      7449      7448      7446      7450      7449      7446      7450
      7450      7453      7454      7450      7453      7455      7450      7453      7460
      7451      7450      7452      7451      7450      7453      7452      7450      7453
      7453      7460      7456      7454      7453      7455      7454      7453      7460
      7455      7453      7460      7456      7459      7461      7457      7456      7458
      7457      7456      7459      7457      7456      7460      7458      7456      7459
      7458      7456      7460      7459      7456      7460      7459      7461      7462
      7459      7461      7463      7459      7461      7464      7461      7464      7465
      7461      7464      7466      7461      7464      7472      7462      7461      7463
      7462      7461      7464      7463      7461      7464      7464      7466      7467
      7464      7472      7473      7464      7472      7474      7464      7472      7475
      7465      7464      7466      7465      7464      7472      7466      7464      7472
      7466      7467      7468      7466      7467      7469      7467      7469      7470
      7467      7469      7471      7467      7469      7481      7468      7467      7469
      7469      7481      7482      7469      7481      7483      7469      7481      7484
      7470      7469      7471      7470      7469      7481      7471      7469      7481
      7472      7475      7476      7473      7472      7474      7473      7472      7475
      7474      7472      7475      7475      7476      7477      7475      7476      7478
      7476      7478      7479      7476      7478      7480      7476      7478      7525
      7477      7476      7478      7478      7525      7526      7478      7525      7527
      7478      7525      7528      7479      7478      7480      7479      7478      7525
      7480      7478      7525      7481      7484      7485      7481      7484      7486
      7481      7484      7487      7482      7481      7483      7482      7481      7484
      7483      7481      7484      7484      7487      7488      7484      7487      7489
      7484      7487      7490      7485      7484      7486      7485      7484      7487
      7486      7484      7487      7487      7490      7491      7487      7490      7492
      7487      7490      7493      7488      7487      7489      7488      7487      7490
      7489      7487      7490      7490      7493      7494      7490      7493      7495
      7490      7493      7496      7491      7490      7492      7491      7490      7493
      7492      7490      7493      7493      7496      7497      7493      7496      7498
      7493      7496      7499      7494      7493      7495      7494      7493      7496
      7495      7493      7496      7496      7499      7500      7496      7499      7501
      7496      7499      7504      7497      7496      7498      7497      7496      7499
      7498      7496      7499      7499      7501      7502      7499      7501      7503
      7499      7501      7504      7499      7504      7501      7499      7504      7505
      7499      7504      7506      7500      7499      7501      7500      7499      7504
      7501      7499      7504      7501      7504      7505      7501      7504      7506
      7502      7501      7503      7502      7501      7504      7503      7501      7504
      7504      7506      7507      7504      7506      7508      7504      7506      7509
      7505      7504      7506      7506      7509      7510      7506      7509      7511
      7506      7509      7512      7507      7506      7508      7507      7506      7509
      7508      7506      7509      7509      7512      7513      7509      7512      7514
      7509      7512      7515      7510      7509      7511      7510      7509      7512
      7511      7509      7512      7512      7515      7516      7512      7515      7517
      7512      7515      7518      7513      7512      7514      7513      7512      7515
      7514      7512      7515      7515      7518      7519      7515      7518      7520
      7515      7518      7521      7516      7515      7517      7516      7515      7518
      7517      7515      7518      7518      7521      7522      7518      7521      7523
      7518      7521      7524      7519      7518      7520      7519      7518      7521
      7520      7518      7521      7522      7521      7523      7522      7521      7524
      7523      7521      7524      7525      7528      7529      7525      7528      7530
      7525      7528      7531      7526      7525      7527      7526      7525      7528
      7527      7525      7528      7528      7531      7532      7528      7531      7533
      7528      7531      7534      7529      7528      7530      7529      7528      7531
      7530      7528      7531      7531      7534      7535      7531      7534      7536
      7531      7534      7537      7532      7531      7533      7532      7531      7534
      7533      7531      7534      7534      7537      7538      7534      7537      7539
      7534      7537      7540      7535      7534      7536      7535      7534      7537
      7536      7534      7537      7537      7540      7541      7537      7540      7542
      7537      7540      7543      7538      7537      7539      7538      7537      7540
      7539      7537      7540      7540      7543      7544      7540      7543      7545
      7540      7543      7546      7541      7540      7542      7541      7540      7543
      7542      7540      7543      7543      7546      7547      7543      7546      7548
      7543      7546      7549      7544      7543      7545      7544      7543      7546
      7545      7543      7546      7546      7549      7550      7546      7549      7551
      7546      7549      7552      7547      7546      7548      7547      7546      7549
      7548      7546      7549      7549      7552      7553      7549      7552      7554
      7549      7552      7555      7550      7549      7551      7550      7549      7552
      7551      7549      7552      7552      7555      7556      7552      7555      7557
      7552      7555      7558      7553      7552      7554      7553      7552      7555
      7554      7552      7555      7555      7558      7559      7555      7558      7560
      7555      7558      7561      7556      7555      7557      7556      7555      7558
      7557      7555      7558      7558      7561      7562      7558      7561      7563
      7558      7561      7564      7559      7558      7560      7559      7558      7561
      7560      7558      7561      7561      7564      7565      7561      7564      7566
      7561      7564      7567      7562      7561      7563      7562      7561      7564
      7563      7561      7564      7565      7564      7566      7565      7564      7567
      7566      7564      7567      7568      7572      7573      7568      7572      7574
      7568      7572      7575      7569      7568      7570      7569      7568      7571
      7569      7568      7572      7570      7568      7571      7570      7568      7572
      7571      7568      7572      7572      7575      7576      7572      7575      7577
      7572      7575      7582      7573      7572      7574      7573      7572      7575
      7574      7572      7575      7575      7582      7578      7576      7575      7577
      7576      7575      7582      7577      7575      7582      7578      7581      7583
      7579      7578      7580      7579      7578      7581      7579      7578      7582
      7580      7578      7581      7580      7578      7582      7581      7578      7582
      7581      7583      7584      7581      7583      7585      7581      7583      7586
      7583      7586      7587      7583      7586      7588      7583      7586      7594
      7584      7583      7585      7584      7583      7586      7585      7583      7586
      7586      7588      7589      7586      7594      7595      7586      7594      7596
      7586      7594      7597      7587      7586      7588      7587      7586      7594
      7588      7586      7594      7588      7589      7590      7588      7589      7591
      7589      7591      7592      7589      7591      7593      7589      7591      7603
      7590      7589      7591      7591      7603      7604      7591      7603      7605
      7591      7603      7606      7592      7591      7593      7592      7591      7603
      7593      7591      7603      7594      7597      7598      7595      7594      7596
      7595      7594      7597      7596      7594      7597      7597      7598      7599
      7597      7598      7600      7598      7600      7601      7598      7600      7602
      7598      7600      7644      7599      7598      7600      7600      7644      7645
      7600      7644      7646      7600      7644      7647      7601      7600      7602
      7601      7600      7644      7602      7600      7644      7603      7606      7607
      7603      7606      7608      7603      7606      7609      7604      7603      7605
      7604      7603      7606      7605      7603      7606      7606      7609      7610
      7606      7609      7611      7606      7609      7612      7607      7606      7608
      7607      7606      7609      7608      7606      7609      7609      7612      7613
      7609      7612      7614      7609      7612      7615      7610      7609      7611
      7610      7609      7612      7611      7609      7612      7612      7615      7616
      7612      7615      7617      7612      7615      7618      7613      7612      7614
      7613      7612      7615      7614      7612      7615      7615      7618      7619
      7615      7618      7620      7615      7618      7621      7616      7615      7617
      7616      7615      7618      7617      7615      7618      7618      7621      7622
      7618      7621      7623      7619      7618      7620      7619      7618      7621
      7620      7618      7621      7621      7623      7624      7621      7623      7625
      7622      7621      7623      7623      7625      7626      7623      7625      7627
      7623      7625      7628      7624      7623      7625      7625      7628      7629
      7625      7628      7630      7625      7628      7631      7626      7625      7627
      7626      7625      7628      7627      7625      7628      7628      7631      7632
      7628      7631      7633      7628      7631      7634      7629      7628      7630
      7629      7628      7631      7630      7628      7631      7631      7634      7635
      7631      7634      7636      7631      7634      7637      7632      7631      7633
      7632      7631      7634      7633      7631      7634      7634      7637      7638
      7634      7637      7639      7634      7637      7640      7635      7634      7636
      7635      7634      7637      7636      7634      7637      7637      7640      7641
      7637      7640      7642      7637      7640      7643      7638      7637      7639
      7638      7637      7640      7639      7637      7640      7641      7640      7642
      7641      7640      7643      7642      7640      7643      7644      7647      7648
      7644      7647      7649      7644      7647      7650      7645      7644      7646
      7645      7644      7647      7646      7644      7647      7647      7650      7651
      7647      7650      7652      7647      7650      7653      7648      7647      7649
      7648      7647      7650      7649      7647      7650      7650      7653      7654
      7650      7653      7655      7650      7653      7656      7651      7650      7652
      7651      7650      7653      7652      7650      7653      7653      7656      7657
      7653      7656      7658      7653      7656      7659      7654      7653      7655
      7654      7653      7656      7655      7653      7656      7656      7659      7660
      7656      7659      7661      7656      7659      7662      7657      7656      7658
      7657      7656      7659      7658      7656      7659      7659      7662      7663
      7659      7662      7664      7660      7659      7661      7660      7659      7662
      7661      7659      7662      7662      7664      7665      7662      7664      7666
      7663      7662      7664      7664      7666      7667      7664      7666      7668
      7664      7666      7669      7665      7664      7666      7666      7669      7670
      7666      7669      7671      7666      7669      7672      7667      7666      7668
      7667      7666      7669      7668      7666      7669      7669      7672      7673
      7669      7672      7674      7669      7672      7675      7670      7669      7671
      7670      7669      7672      7671      7669      7672      7672      7675      7676
      7672      7675      7677      7672      7675      7678      7673      7672      7674
      7673      7672      7675      7674      7672      7675      7675      7678      7679
      7675      7678      7680      7675      7678      7681      7676      7675      7677
      7676      7675      7678      7677      7675      7678      7678      7681      7682
      7678      7681      7683      7678      7681      7684      7679      7678      7680
      7679      7678      7681      7680      7678      7681      7681      7684      7685
      7681      7684      7686      7681      7684      7687      7682      7681      7683
      7682      7681      7684      7683      7681      7684      7684      7687      7688
      7684      7687      7689      7684      7687      7690      7685      7684      7686
      7685      7684      7687      7686      7684      7687      7688      7687      7689
      7688      7687      7690      7689      7687      7690      7691      7694      7695
      7691      7696      7697      7691      7696      7698      7691      7696      7700
      7692      7691      7693      7692      7691      7694      7692      7691      7696
      7693      7691      7694      7693      7691      7696      7694      7691      7696
      7696      7698      7699      7696      7700      7701      7696      7700      7702
      7696      7700      7707      7697      7696      7698      7697      7696      7700
      7698      7696      7700      7700      7707      7703      7701      7700      7702
      7701      7700      7707      7702      7700      7707      7703      7706      7708
      7704      7703      7705      7704      7703      7706      7704      7703      7707
      7705      7703      7706      7705      7703      7707      7706      7703      7707
      7706      7708      7709      7706      7708      7710      7706      7708      7711
      7708      7711      7712      7708      7711      7713      7708      7711      7719
      7709      7708      7710      7709      7708      7711      7710      7708      7711
      7711      7713      7714      7711      7719      7720      7711      7719      7721
      7711      7719      7722      7712      7711      7713      7712      7711      7719
      7713      7711      7719      7713      7714      7715      7713      7714      7716
      7714      7716      7717      7714      7716      7718      7714      7716      7728
      7715      7714      7716      7716      7728      7729      7716      7728      7730
      7716      7728      7731      7717      7716      7718      7717      7716      7728
      7718      7716      7728      7719      7722      7723      7720      7719      7721
      7720      7719      7722      7721      7719      7722      7722      7723      7724
      7722      7723      7725      7723      7725      7726      7723      7725      7727
      7723      7725      7772      7724      7723      7725      7725      7772      7773
      7725      7772      7774      7725      7772      7775      7726      7725      7727
      7726      7725      7772      7727      7725      7772      7728      7731      7732
      7728      7731      7733      7728      7731      7734      7729      7728      7730
      7729      7728      7731      7730      7728      7731      7731      7734      7735
      7731      7734      7736      7731      7734      7737      7732      7731      7733
      7732      7731      7734      7733      7731      7734      7734      7737      7738
      7734      7737      7739      7734      7737      7740      7735      7734      7736
      7735      7734      7737      7736      7734      7737      7737      7740      7741
      7737      7740      7742      7737      7740      7743      7738      7737      7739
      7738      7737      7740      7739      7737      7740      7740      7743      7744
      7740      7743      7745      7740      7743      7746      7741      7740      7742
      7741      7740      7743      7742      7740      7743      7743      7746      7747
      7743      7746      7748      7743      7746      7751      7744      7743      7745
      7744      7743      7746      7745      7743      7746      7746      7748      7749
      7746      7748      7750      7746      7748      7751      7746      7751      7748
      7746      7751      7752      7746      7751      7753      7747      7746      7748
      7747      7746      7751      7748      7746      7751      7748      7751      7752
      7748      7751      7753      7749      7748      7750      7749      7748      7751
      7750      7748      7751      7751      7753      7754      7751      7753      7755
      7751      7753      7756      7752      7751      7753      7753      7756      7757
      7753      7756      7758      7753      7756      7759      7754      7753      7755
      7754      7753      7756      7755      7753      7756      7756      7759      7760
      7756      7759      7761      7756      7759      7762      7757      7756      7758
      7757      7756      7759      7758      7756      7759      7759      7762      7763
      7759      7762      7764      7759      7762      7765      7760      7759      7761
      7760      7759      7762      7761      7759      7762      7762      7765      7766
      7762      7765      7767      7762      7765      7768      7763      7762      7764
      7763      7762      7765      7764      7762      7765      7765      7768      7769
      7765      7768      7770      7765      7768      7771      7766      7765      7767
      7766      7765      7768      7767      7765      7768      7769      7768      7770
      7769      7768      7771      7770      7768      7771      7772      7775      7776
      7772      7775      7777      7772      7775      7778      7773      7772      7774
      7773      7772      7775      7774      7772      7775      7775      7778      7779
      7775      7778      7780      7775      7778      7781      7776      7775      7777
      7776      7775      7778      7777      7775      7778      7778      7781      7782
      7778      7781      7783      7778      7781      7784      7779      7778      7780
      7779      7778      7781      7780      7778      7781      7781      7784      7785
      7781      7784      7786      7781      7784      7787      7782      7781      7783
      7782      7781      7784      7783      7781      7784      7784      7787      7788
      7784      7787      7789      7784      7787      7790      7785      7784      7786
      7785      7784      7787      7786      7784      7787      7787      7790      7791
      7787      7790      7792      7787      7790      7793      7788      7787      7789
      7788      7787      7790      7789      7787      7790      7790      7793      7794
      7790      7793      7795      7790      7793      7796      7791      7790      7792
      7791      7790      7793      7792      7790      7793      7793      7796      7797
      7793      7796      7798      7793      7796      7799      7794      7793      7795
      7794      7793      7796      7795      7793      7796      7796      7799      7800
      7796      7799      7801      7796      7799      7802      7797      7796      7798
      7797      7796      7799      7798      7796      7799      7799      7802      7803
      7799      7802      7804      7799      7802      7805      7800      7799      7801
      7800      7799      7802      7801      7799      7802      7802      7805      7806
      7802      7805      7807      7802      7805      7808      7803      7802      7804
      7803      7802      7805      7804      7802      7805      7805      7808      7809
      7805      7808      7810      7805      7808      7811      7806      7805      7807
      7806      7805      7808      7807      7805      7808      7808      7811      7812
      7808      7811      7813      7808      7811      7814      7809      7808      7810
      7809      7808      7811      7810      7808      7811      7812      7811      7813
      7812      7811      7814      7813      7811      7814      7815      7818      7819
      7815      7820      7821      7815      7820      7822      7815      7820      7824
      7816      7815      7817      7816      7815      7818      7816      7815      7820
      7817      7815      7818      7817      7815      7820      7818      7815      7820
      7820      7822      7823      7820      7824      7825      7820      7824      7826
      7820      7824      7831      7821      7820      7822      7821      7820      7824
      7822      7820      7824      7824      7831      7827      7825      7824      7826
      7825      7824      7831      7826      7824      7831      7827      7830      7832
      7828      7827      7829      7828      7827      7830      7828      7827      7831
      7829      7827      7830      7829      7827      7831      7830      7827      7831
      7830      7832      7833      7830      7832      7834      7830      7832      7835
      7832      7835      7836      7832      7835      7837      7832      7835      7843
      7833      7832      7834      7833      7832      7835      7834      7832      7835
      7835      7837      7838      7835      7843      7844      7835      7843      7845
      7835      7843      7846      7836      7835      7837      7836      7835      7843
      7837      7835      7843      7837      7838      7839      7837      7838      7840
      7838      7840      7841      7838      7840      7842      7838      7840      7852
      7839      7838      7840      7840      7852      7853      7840      7852      7854
      7840      7852      7855      7841      7840      7842      7841      7840      7852
      7842      7840      7852      7843      7846      7847      7844      7843      7845
      7844      7843      7846      7845      7843      7846      7846      7847      7848
      7846      7847      7849      7847      7849      7850      7847      7849      7851
      7847      7849      7896      7848      7847      7849      7849      7896      7897
      7849      7896      7898      7849      7896      7899      7850      7849      7851
      7850      7849      7896      7851      7849      7896      7852      7855      7856
      7852      7855      7857      7852      7855      7858      7853      7852      7854
      7853      7852      7855      7854      7852      7855      7855      7858      7859
      7855      7858      7860      7855      7858      7861      7856      7855      7857
      7856      7855      7858      7857      7855      7858      7858      7861      7862
      7858      7861      7863      7858      7861      7864      7859      7858      7860
      7859      7858      7861      7860      7858      7861      7861      7864      7865
      7861      7864      7866      7861      7864      7867      7862      7861      7863
      7862      7861      7864      7863      7861      7864      7864      7867      7868
      7864      7867      7869      7864      7867      7870      7865      7864      7866
      7865      7864      7867      7866      7864      7867      7867      7870      7871
      7867      7870      7872      7867      7870      7875      7868      7867      7869
      7868      7867      7870      7869      7867      7870      7870      7872      7873
      7870      7872      7874      7870      7872      7875      7870      7875      7872
      7870      7875      7876      7870      7875      7877      7871      7870      7872
      7871      7870      7875      7872      7870      7875      7872      7875      7876
      7872      7875      7877      7873      7872      7874      7873      7872      7875
      7874      7872      7875      7875      7877      7878      7875      7877      7879
      7875      7877      7880      7876      7875      7877      7877      7880      7881
      7877      7880      7882      7877      7880      7883      7878      7877      7879
      7878      7877      7880      7879      7877      7880      7880      7883      7884
      7880      7883      7885      7880      7883      7886      7881      7880      7882
      7881      7880      7883      7882      7880      7883      7883      7886      7887
      7883      7886      7888      7883      7886      7889      7884      7883      7885
      7884      7883      7886      7885      7883      7886      7886      7889      7890
      7886      7889      7891      7886      7889      7892      7887      7886      7888
      7887      7886      7889      7888      7886      7889      7889      7892      7893
      7889      7892      7894      7889      7892      7895      7890      7889      7891
      7890      7889      7892      7891      7889      7892      7893      7892      7894
      7893      7892      7895      7894      7892      7895      7896      7899      7900
      7896      7899      7901      7896      7899      7902      7897      7896      7898
      7897      7896      7899      7898      7896      7899      7899      7902      7903
      7899      7902      7904      7899      7902      7905      7900      7899      7901
      7900      7899      7902      7901      7899      7902      7902      7905      7906
      7902      7905      7907      7902      7905      7908      7903      7902      7904
      7903      7902      7905      7904      7902      7905      7905      7908      7909
      7905      7908      7910      7905      7908      7911      7906      7905      7907
      7906      7905      7908      7907      7905      7908      7908      7911      7912
      7908      7911      7913      7908      7911      7914      7909      7908      7910
      7909      7908      7911      7910      7908      7911      7911      7914      7915
      7911      7914      7916      7911      7914      7917      7912      7911      7913
      7912      7911      7914      7913      7911      7914      7914      7917      7918
      7914      7917      7919      7914      7917      7920      7915      7914      7916
      7915      7914      7917      7916      7914      7917      7917      7920      7921
      7917      7920      7922      7917      7920      7923      7918      7917      7919
      7918      7917      7920      7919      7917      7920      7920      7923      7924
      7920      7923      7925      7920      7923      7926      7921      7920      7922
      7921      7920      7923      7922      7920      7923      7923      7926      7927
      7923      7926      7928      7923      7926      7929      7924      7923      7925
      7924      7923      7926      7925      7923      7926      7926      7929      7930
      7926      7929      7931      7926      7929      7932      7927      7926      7928
      7927      7926      7929      7928      7926      7929      7929      7932      7933
      7929      7932      7934      7929      7932      7935      7930      7929      7931
      7930      7929      7932      7931      7929      7932      7932      7935      7936
      7932      7935      7937      7932      7935      7938      7933      7932      7934
      7933      7932      7935      7934      7932      7935      7936      7935      7937
      7936      7935      7938      7937      7935      7938      7939      7943      7944
      7939      7943      7945      7939      7943      7946      7940      7939      7941
      7940      7939      7942      7940      7939      7943      7941      7939      7942
      7941      7939      7943      7942      7939      7943      7943      7946      7947
      7943      7946      7948      7943      7946      7953      7944      7943      7945
      7944      7943      7946      7945      7943      7946      7946      7953      7949
      7947      7946      7948      7947      7946      7953      7948      7946      7953
      7949      7952      7954      7950      7949      7951      7950      7949      7952
      7950      7949      7953      7951      7949      7952      7951      7949      7953
      7952      7949      7953      7952      7954      7955      7952      7954      7956
      7952      7954      7957      7954      7957      7958      7954      7957      7959
      7954      7957      7965      7955      7954      7956      7955      7954      7957
      7956      7954      7957      7957      7959      7960      7957      7965      7966
      7957      7965      7967      7957      7965      7968      7958      7957      7959
      7958      7957      7965      7959      7957      7965      7959      7960      7961
      7959      7960      7962      7960      7962      7963      7960      7962      7964
      7960      7962      7974      7961      7960      7962      7962      7974      7975
      7962      7974      7976      7962      7974      7977      7963      7962      7964
      7963      7962      7974      7964      7962      7974      7965      7968      7969
      7966      7965      7967      7966      7965      7968      7967      7965      7968
      7968      7969      7970      7968      7969      7971      7969      7971      7972
      7969      7971      7973      7969      7971      8018      7970      7969      7971
      7971      8018      8019      7971      8018      8020      7971      8018      8021
      7972      7971      7973      7972      7971      8018      7973      7971      8018
      7974      7977      7978      7974      7977      7979      7974      7977      7980
      7975      7974      7976      7975      7974      7977      7976      7974      7977
      7977      7980      7981      7977      7980      7982      7977      7980      7983
      7978      7977      7979      7978      7977      7980      7979      7977      7980
      7980      7983      7984      7980      7983      7985      7980      7983      7986
      7981      7980      7982      7981      7980      7983      7982      7980      7983
      7983      7986      7987      7983      7986      7988      7983      7986      7989
      7984      7983      7985      7984      7983      7986      7985      7983      7986
      7986      7989      7990      7986      7989      7991      7986      7989      7992
      7987      7986      7988      7987      7986      7989      7988      7986      7989
      7989      7992      7993      7989      7992      7994      7989      7992      7997
      7990      7989      7991      7990      7989      7992      7991      7989      7992
      7992      7994      7995      7992      7994      7996      7992      7994      7997
      7992      7997      7994      7992      7997      7998      7992      7997      7999
      7993      7992      7994      7993      7992      7997      7994      7992      7997
      7994      7997      7998      7994      7997      7999      7995      7994      7996
      7995      7994      7997      7996      7994      7997      7997      7999      8000
      7997      7999      8001      7997      7999      8002      7998      7997      7999
      7999      8002      8003      7999      8002      8004      7999      8002      8005
      8000      7999      8001      8000      7999      8002      8001      7999      8002
      8002      8005      8006      8002      8005      8007      8002      8005      8008
      8003      8002      8004      8003      8002      8005      8004      8002      8005
      8005      8008      8009      8005      8008      8010      8005      8008      8011
      8006      8005      8007      8006      8005      8008      8007      8005      8008
      8008      8011      8012      8008      8011      8013      8008      8011      8014
      8009      8008      8010      8009      8008      8011      8010      8008      8011
      8011      8014      8015      8011      8014      8016      8011      8014      8017
      8012      8011      8013      8012      8011      8014      8013      8011      8014
      8015      8014      8016      8015      8014      8017      8016      8014      8017
      8018      8021      8022      8018      8021      8023      8018      8021      8024
      8019      8018      8020      8019      8018      8021      8020      8018      8021
      8021      8024      8025      8021      8024      8026      8021      8024      8027
      8022      8021      8023      8022      8021      8024      8023      8021      8024
      8024      8027      8028      8024      8027      8029      8024      8027      8030
      8025      8024      8026      8025      8024      8027      8026      8024      8027
      8027      8030      8031      8027      8030      8032      8027      8030      8033
      8028      8027      8029      8028      8027      8030      8029      8027      8030
      8030      8033      8034      8030      8033      8035      8030      8033      8036
      8031      8030      8032      8031      8030      8033      8032      8030      8033
      8033      8036      8037      8033      8036      8038      8033      8036      8039
      8034      8033      8035      8034      8033      8036      8035      8033      8036
      8036      8039      8040      8036      8039      8041      8036      8039      8042
      8037      8036      8038      8037      8036      8039      8038      8036      8039
      8039      8042      8043      8039      8042      8044      8039      8042      8045
      8040      8039      8041      8040      8039      8042      8041      8039      8042
      8042      8045      8046      8042      8045      8047      8042      8045      8048
      8043      8042      8044      8043      8042      8045      8044      8042      8045
      8045      8048      8049      8045      8048      8050      8045      8048      8051
      8046      8045      8047      8046      8045      8048      8047      8045      8048
      8048      8051      8052      8048      8051      8053      8048      8051      8054
      8049      8048      8050      8049      8048      8051      8050      8048      8051
      8051      8054      8055      8051      8054      8056      8051      8054      8057
      8052      8051      8053      8052      8051      8054      8053      8051      8054
      8055      8054      8056      8055      8054      8057      8056      8054      8057
      8058      8062      8063      8058      8062      8064      8058      8062      8065
      8059      8058      8060      8059      8058      8061      8059      8058      8062
      8060      8058      8061      8060      8058      8062      8061      8058      8062
      8062      8065      8066      8062      8065      8067      8062      8065      8072
      8063      8062      8064      8063      8062      8065      8064      8062      8065
      8065      8072      8068      8066      8065      8067      8066      8065      8072
      8067      8065      8072      8068      8071      8073      8069      8068      8070
      8069      8068      8071      8069      8068      8072      8070      8068      8071
      8070      8068      8072      8071      8068      8072      8071      8073      8074
      8071      8073      8075      8071      8073      8076      8073      8076      8077
      8073      8076      8078      8073      8076      8084      8074      8073      8075
      8074      8073      8076      8075      8073      8076      8076      8078      8079
      8076      8084      8085      8076      8084      8086      8076      8084      8087
      8077      8076      8078      8077      8076      8084      8078      8076      8084
      8078      8079      8080      8078      8079      8081      8079      8081      8082
      8079      8081      8083      8079      8081      8093      8080      8079      8081
      8081      8093      8094      8081      8093      8095      8081      8093      8096
      8082      8081      8083      8082      8081      8093      8083      8081      8093
      8084      8087      8088      8085      8084      8086      8085      8084      8087
      8086      8084      8087      8087      8088      8089      8087      8088      8090
      8088      8090      8091      8088      8090      8092      8088      8090      8134
      8089      8088      8090      8090      8134      8135      8090      8134      8136
      8090      8134      8137      8091      8090      8092      8091      8090      8134
      8092      8090      8134      8093      8096      8097      8093      8096      8098
      8093      8096      8099      8094      8093      8095      8094      8093      8096
      8095      8093      8096      8096      8099      8100      8096      8099      8101
      8096      8099      8102      8097      8096      8098      8097      8096      8099
      8098      8096      8099      8099      8102      8103      8099      8102      8104
      8099      8102      8105      8100      8099      8101      8100      8099      8102
      8101      8099      8102      8102      8105      8106      8102      8105      8107
      8102      8105      8108      8103      8102      8104      8103      8102      8105
      8104      8102      8105      8105      8108      8109      8105      8108      8110
      8105      8108      8111      8106      8105      8107      8106      8105      8108
      8107      8105      8108      8108      8111      8112      8108      8111      8113
      8109      8108      8110      8109      8108      8111      8110      8108      8111
      8111      8113      8114      8111      8113      8115      8112      8111      8113
      8113      8115      8116      8113      8115      8117      8113      8115      8118
      8114      8113      8115      8115      8118      8119      8115      8118      8120
      8115      8118      8121      8116      8115      8117      8116      8115      8118
      8117      8115      8118      8118      8121      8122      8118      8121      8123
      8118      8121      8124      8119      8118      8120      8119      8118      8121
      8120      8118      8121      8121      8124      8125      8121      8124      8126
      8121      8124      8127      8122      8121      8123      8122      8121      8124
      8123      8121      8124      8124      8127      8128      8124      8127      8129
      8124      8127      8130      8125      8124      8126      8125      8124      8127
      8126      8124      8127      8127      8130      8131      8127      8130      8132
      8127      8130      8133      8128      8127      8129      8128      8127      8130
      8129      8127      8130      8131      8130      8132      8131      8130      8133
      8132      8130      8133      8134      8137      8138      8134      8137      8139
      8134      8137      8140      8135      8134      8136      8135      8134      8137
      8136      8134      8137      8137      8140      8141      8137      8140      8142
      8137      8140      8143      8138      8137      8139      8138      8137      8140
      8139      8137      8140      8140      8143      8144      8140      8143      8145
      8140      8143      8146      8141      8140      8142      8141      8140      8143
      8142      8140      8143      8143      8146      8147      8143      8146      8148
      8143      8146      8149      8144      8143      8145      8144      8143      8146
      8145      8143      8146      8146      8149      8150      8146      8149      8151
      8146      8149      8152      8147      8146      8148      8147      8146      8149
      8148      8146      8149      8149      8152      8153      8149      8152      8154
      8150      8149      8151      8150      8149      8152      8151      8149      8152
      8152      8154      8155      8152      8154      8156      8153      8152      8154
      8154      8156      8157      8154      8156      8158      8154      8156      8159
      8155      8154      8156      8156      8159      8160      8156      8159      8161
      8156      8159      8162      8157      8156      8158      8157      8156      8159
      8158      8156      8159      8159      8162      8163      8159      8162      8164
      8159      8162      8165      8160      8159      8161      8160      8159      8162
      8161      8159      8162      8162      8165      8166      8162      8165      8167
      8162      8165      8168      8163      8162      8164      8163      8162      8165
      8164      8162      8165      8165      8168      8169      8165      8168      8170
      8165      8168      8171      8166      8165      8167      8166      8165      8168
      8167      8165      8168      8168      8171      8172      8168      8171      8173
      8168      8171      8174      8169      8168      8170      8169      8168      8171
      8170      8168      8171      8171      8174      8175      8171      8174      8176
      8171      8174      8177      8172      8171      8173      8172      8171      8174
      8173      8171      8174      8174      8177      8178      8174      8177      8179
      8174      8177      8180      8175      8174      8176      8175      8174      8177
      8176      8174      8177      8178      8177      8179      8178      8177      8180
      8179      8177      8180      8181      8185      8186      8181      8185      8187
      8181      8185      8188      8182      8181      8183      8182      8181      8184
      8182      8181      8185      8183      8181      8184      8183      8181      8185
      8184      8181      8185      8185      8188      8189      8185      8188      8190
      8185      8188      8195      8186      8185      8187      8186      8185      8188
      8187      8185      8188      8188      8195      8191      8189      8188      8190
      8189      8188      8195      8190      8188      8195      8191      8194      8196
      8192      8191      8193      8192      8191      8194      8192      8191      8195
      8193      8191      8194      8193      8191      8195      8194      8191      8195
      8194      8196      8197      8194      8196      8198      8194      8196      8199
      8196      8199      8200      8196      8199      8201      8196      8199      8207
      8197      8196      8198      8197      8196      8199      8198      8196      8199
      8199      8201      8202      8199      8207      8208      8199      8207      8209
      8199      8207      8210      8200      8199      8201      8200      8199      8207
      8201      8199      8207      8201      8202      8203      8201      8202      8204
      8202      8204      8205      8202      8204      8206      8202      8204      8216
      8203      8202      8204      8204      8216      8217      8204      8216      8218
      8204      8216      8219      8205      8204      8206      8205      8204      8216
      8206      8204      8216      8207      8210      8211      8208      8207      8209
      8208      8207      8210      8209      8207      8210      8210      8211      8212
      8210      8211      8213      8211      8213      8214      8211      8213      8215
      8211      8213      8260      8212      8211      8213      8213      8260      8261
      8213      8260      8262      8213      8260      8263      8214      8213      8215
      8214      8213      8260      8215      8213      8260      8216      8219      8220
      8216      8219      8221      8216      8219      8222      8217      8216      8218
      8217      8216      8219      8218      8216      8219      8219      8222      8223
      8219      8222      8224      8219      8222      8225      8220      8219      8221
      8220      8219      8222      8221      8219      8222      8222      8225      8226
      8222      8225      8227      8222      8225      8228      8223      8222      8224
      8223      8222      8225      8224      8222      8225      8225      8228      8229
      8225      8228      8230      8225      8228      8231      8226      8225      8227
      8226      8225      8228      8227      8225      8228      8228      8231      8232
      8228      8231      8233      8228      8231      8234      8229      8228      8230
      8229      8228      8231      8230      8228      8231      8231      8234      8235
      8231      8234      8236      8231      8234      8239      8232      8231      8233
      8232      8231      8234      8233      8231      8234      8234      8236      8237
      8234      8236      8238      8234      8236      8239      8234      8239      8236
      8234      8239      8240      8234      8239      8241      8235      8234      8236
      8235      8234      8239      8236      8234      8239      8236      8239      8240
      8236      8239      8241      8237      8236      8238      8237      8236      8239
      8238      8236      8239      8239      8241      8242      8239      8241      8243
      8239      8241      8244      8240      8239      8241      8241      8244      8245
      8241      8244      8246      8241      8244      8247      8242      8241      8243
      8242      8241      8244      8243      8241      8244      8244      8247      8248
      8244      8247      8249      8244      8247      8250      8245      8244      8246
      8245      8244      8247      8246      8244      8247      8247      8250      8251
      8247      8250      8252      8247      8250      8253      8248      8247      8249
      8248      8247      8250      8249      8247      8250      8250      8253      8254
      8250      8253      8255      8250      8253      8256      8251      8250      8252
      8251      8250      8253      8252      8250      8253      8253      8256      8257
      8253      8256      8258      8253      8256      8259      8254      8253      8255
      8254      8253      8256      8255      8253      8256      8257      8256      8258
      8257      8256      8259      8258      8256      8259      8260      8263      8264
      8260      8263      8265      8260      8263      8266      8261      8260      8262
      8261      8260      8263      8262      8260      8263      8263      8266      8267
      8263      8266      8268      8263      8266      8269      8264      8263      8265
      8264      8263      8266      8265      8263      8266      8266      8269      8270
      8266      8269      8271      8266      8269      8272      8267      8266      8268
      8267      8266      8269      8268      8266      8269      8269      8272      8273
      8269      8272      8274      8269      8272      8275      8270      8269      8271
      8270      8269      8272      8271      8269      8272      8272      8275      8276
      8272      8275      8277      8272      8275      8278      8273      8272      8274
      8273      8272      8275      8274      8272      8275      8275      8278      8279
      8275      8278      8280      8275      8278      8281      8276      8275      8277
      8276      8275      8278      8277      8275      8278      8278      8281      8282
      8278      8281      8283      8278      8281      8284      8279      8278      8280
      8279      8278      8281      8280      8278      8281      8281      8284      8285
      8281      8284      8286      8281      8284      8287      8282      8281      8283
      8282      8281      8284      8283      8281      8284      8284      8287      8288
      8284      8287      8289      8284      8287      8290      8285      8284      8286
      8285      8284      8287      8286      8284      8287      8287      8290      8291
      8287      8290      8292      8287      8290      8293      8288      8287      8289
      8288      8287      8290      8289      8287      8290      8290      8293      8294
      8290      8293      8295      8290      8293      8296      8291      8290      8292
      8291      8290      8293      8292      8290      8293      8293      8296      8297
      8293      8296      8298      8293      8296      8299      8294      8293      8295
      8294      8293      8296      8295      8293      8296      8296      8299      8300
      8296      8299      8301      8296      8299      8302      8297      8296      8298
      8297      8296      8299      8298      8296      8299      8300      8299      8301
      8300      8299      8302      8301      8299      8302      8303      8307      8308
      8303      8307      8309      8303      8307      8310      8304      8303      8305
      8304      8303      8306      8304      8303      8307      8305      8303      8306
      8305      8303      8307      8306      8303      8307      8307      8310      8311
      8307      8310      8312      8307      8310      8317      8308      8307      8309
      8308      8307      8310      8309      8307      8310      8310      8317      8313
      8311      8310      8312      8311      8310      8317      8312      8310      8317
      8313      8316      8318      8314      8313      8315      8314      8313      8316
      8314      8313      8317      8315      8313      8316      8315      8313      8317
      8316      8313      8317      8316      8318      8319      8316      8318      8320
      8316      8318      8321      8318      8321      8322      8318      8321      8323
      8318      8321      8329      8319      8318      8320      8319      8318      8321
      8320      8318      8321      8321      8323      8324      8321      8329      8330
      8321      8329      8331      8321      8329      8332      8322      8321      8323
      8322      8321      8329      8323      8321      8329      8323      8324      8325
      8323      8324      8326      8324      8326      8327      8324      8326      8328
      8324      8326      8338      8325      8324      8326      8326      8338      8339
      8326      8338      8340      8326      8338      8341      8327      8326      8328
      8327      8326      8338      8328      8326      8338      8329      8332      8333
      8330      8329      8331      8330      8329      8332      8331      8329      8332
      8332      8333      8334      8332      8333      8335      8333      8335      8336
      8333      8335      8337      8333      8335      8385      8334      8333      8335
      8335      8385      8386      8335      8385      8387      8335      8385      8388
      8336      8335      8337      8336      8335      8385      8337      8335      8385
      8338      8341      8342      8338      8341      8343      8338      8341      8344
      8339      8338      8340      8339      8338      8341      8340      8338      8341
      8341      8344      8345      8341      8344      8346      8341      8344      8347
      8342      8341      8343      8342      8341      8344      8343      8341      8344
      8344      8347      8348      8344      8347      8349      8344      8347      8350
      8345      8344      8346      8345      8344      8347      8346      8344      8347
      8347      8350      8351      8347      8350      8352      8347      8350      8353
      8348      8347      8349      8348      8347      8350      8349      8347      8350
      8350      8353      8354      8350      8353      8355      8350      8353      8356
      8351      8350      8352      8351      8350      8353      8352      8350      8353
      8353      8356      8357      8353      8356      8358      8354      8353      8355
      8354      8353      8356      8355      8353      8356      8356      8358      8359
      8356      8358      8360      8357      8356      8358      8358      8360      8361
      8358      8360      8362      8358      8360      8363      8359      8358      8360
      8360      8363      8364      8360      8363      8365      8360      8363      8366
      8361      8360      8362      8361      8360      8363      8362      8360      8363
      8363      8366      8367      8363      8366      8368      8363      8366      8369
      8364      8363      8365      8364      8363      8366      8365      8363      8366
      8366      8369      8370      8366      8369      8371      8366      8369      8372
      8367      8366      8368      8367      8366      8369      8368      8366      8369
      8369      8372      8373      8369      8372      8374      8369      8372      8375
      8370      8369      8371      8370      8369      8372      8371      8369      8372
      8372      8375      8376      8372      8375      8377      8372      8375      8378
      8373      8372      8374      8373      8372      8375      8374      8372      8375
      8375      8378      8379      8375      8378      8380      8375      8378      8381
      8376      8375      8377      8376      8375      8378      8377      8375      8378
      8378      8381      8382      8378      8381      8383      8378      8381      8384
      8379      8378      8380      8379      8378      8381      8380      8378      8381
      8382      8381      8383      8382      8381      8384      8383      8381      8384
      8385      8388      8389      8385      8388      8390      8385      8388      8391
      8386      8385      8387      8386      8385      8388      8387      8385      8388
      8388      8391      8392      8388      8391      8393      8388      8391      8394
      8389      8388      8390      8389      8388      8391      8390      8388      8391
      8391      8394      8395      8391      8394      8396      8391      8394      8397
      8392      8391      8393      8392      8391      8394      8393      8391      8394
      8394      8397      8398      8394      8397      8399      8394      8397      8400
      8395      8394      8396      8395      8394      8397      8396      8394      8397
      8397      8400      8401      8397      8400      8402      8397      8400      8403
      8398      8397      8399      8398      8397      8400      8399      8397      8400
      8400      8403      8404      8400      8403      8405      8400      8403      8406
      8401      8400      8402      8401      8400      8403      8402      8400      8403
      8403      8406      8407      8403      8406      8408      8403      8406      8409
      8404      8403      8405      8404      8403      8406      8405      8403      8406
      8406      8409      8410      8406      8409      8411      8406      8409      8412
      8407      8406      8408      8407      8406      8409      8408      8406      8409
      8409      8412      8413      8409      8412      8414      8409      8412      8415
      8410      8409      8411      8410      8409      8412      8411      8409      8412
      8412      8415      8416      8412      8415      8417      8412      8415      8418
      8413      8412      8414      8413      8412      8415      8414      8412      8415
      8415      8418      8419      8415      8418      8420      8415      8418      8421
      8416      8415      8417      8416      8415      8418      8417      8415      8418
      8418      8421      8422      8418      8421      8423      8418      8421      8424
      8419      8418      8420      8419      8418      8421      8420      8418      8421
      8421      8424      8425      8421      8424      8426      8421      8424      8427
      8422      8421      8423      8422      8421      8424      8423      8421      8424
      8425      8424      8426      8425      8424      8427      8426      8424      8427
      8428      8432      8433      8428      8432      8434      8428      8432      8435
      8429      8428      8430      8429      8428      8431      8429      8428      8432
      8430      8428      8431      8430      8428      8432      8431      8428      8432
      8432      8435      8436      8432      8435      8437      8432      8435      8442
      8433      8432      8434      8433      8432      8435      8434      8432      8435
      8435      8442      8438      8436      8435      8437      8436      8435      8442
      8437      8435      8442      8438      8441      8443      8439      8438      8440
      8439      8438      8441      8439      8438      8442      8440      8438      8441
      8440      8438      8442      8441      8438      8442      8441      8443      8444
      8441      8443      8445      8441      8443      8446      8443      8446      8447
      8443      8446      8448      8443      8446      8454      8444      8443      8445
      8444      8443      8446      8445      8443      8446      8446      8448      8449
      8446      8454      8455      8446      8454      8456      8446      8454      8457
      8447      8446      8448      8447      8446      8454      8448      8446      8454
      8448      8449      8450      8448      8449      8451      8449      8451      8452
      8449      8451      8453      8449      8451      8463      8450      8449      8451
      8451      8463      8464      8451      8463      8465      8451      8463      8466
      8452      8451      8453      8452      8451      8463      8453      8451      8463
      8454      8457      8458      8455      8454      8456      8455      8454      8457
      8456      8454      8457      8457      8458      8459      8457      8458      8460
      8458      8460      8461      8458      8460      8462      8458      8460      8507
      8459      8458      8460      8460      8507      8508      8460      8507      8509
      8460      8507      8510      8461      8460      8462      8461      8460      8507
      8462      8460      8507      8463      8466      8467      8463      8466      8468
      8463      8466      8469      8464      8463      8465      8464      8463      8466
      8465      8463      8466      8466      8469      8470      8466      8469      8471
      8466      8469      8472      8467      8466      8468      8467      8466      8469
      8468      8466      8469      8469      8472      8473      8469      8472      8474
      8469      8472      8475      8470      8469      8471      8470      8469      8472
      8471      8469      8472      8472      8475      8476      8472      8475      8477
      8472      8475      8478      8473      8472      8474      8473      8472      8475
      8474      8472      8475      8475      8478      8479      8475      8478      8480
      8475      8478      8481      8476      8475      8477      8476      8475      8478
      8477      8475      8478      8478      8481      8482      8478      8481      8483
      8478      8481      8486      8479      8478      8480      8479      8478      8481
      8480      8478      8481      8481      8483      8484      8481      8483      8485
      8481      8483      8486      8481      8486      8483      8481      8486      8487
      8481      8486      8488      8482      8481      8483      8482      8481      8486
      8483      8481      8486      8483      8486      8487      8483      8486      8488
      8484      8483      8485      8484      8483      8486      8485      8483      8486
      8486      8488      8489      8486      8488      8490      8486      8488      8491
      8487      8486      8488      8488      8491      8492      8488      8491      8493
      8488      8491      8494      8489      8488      8490      8489      8488      8491
      8490      8488      8491      8491      8494      8495      8491      8494      8496
      8491      8494      8497      8492      8491      8493      8492      8491      8494
      8493      8491      8494      8494      8497      8498      8494      8497      8499
      8494      8497      8500      8495      8494      8496      8495      8494      8497
      8496      8494      8497      8497      8500      8501      8497      8500      8502
      8497      8500      8503      8498      8497      8499      8498      8497      8500
      8499      8497      8500      8500      8503      8504      8500      8503      8505
      8500      8503      8506      8501      8500      8502      8501      8500      8503
      8502      8500      8503      8504      8503      8505      8504      8503      8506
      8505      8503      8506      8507      8510      8511      8507      8510      8512
      8507      8510      8513      8508      8507      8509      8508      8507      8510
      8509      8507      8510      8510      8513      8514      8510      8513      8515
      8510      8513      8516      8511      8510      8512      8511      8510      8513
      8512      8510      8513      8513      8516      8517      8513      8516      8518
      8513      8516      8519      8514      8513      8515      8514      8513      8516
      8515      8513      8516      8516      8519      8520      8516      8519      8521
      8516      8519      8522      8517      8516      8518      8517      8516      8519
      8518      8516      8519      8519      8522      8523      8519      8522      8524
      8519      8522      8525      8520      8519      8521      8520      8519      8522
      8521      8519      8522      8522      8525      8526      8522      8525      8527
      8522      8525      8528      8523      8522      8524      8523      8522      8525
      8524      8522      8525      8525      8528      8529      8525      8528      8530
      8525      8528      8531      8526      8525      8527      8526      8525      8528
      8527      8525      8528      8528      8531      8532      8528      8531      8533
      8528      8531      8534      8529      8528      8530      8529      8528      8531
      8530      8528      8531      8531      8534      8535      8531      8534      8536
      8531      8534      8537      8532      8531      8533      8532      8531      8534
      8533      8531      8534      8534      8537      8538      8534      8537      8539
      8534      8537      8540      8535      8534      8536      8535      8534      8537
      8536      8534      8537      8537      8540      8541      8537      8540      8542
      8537      8540      8543      8538      8537      8539      8538      8537      8540
      8539      8537      8540      8540      8543      8544      8540      8543      8545
      8540      8543      8546      8541      8540      8542      8541      8540      8543
      8542      8540      8543      8543      8546      8547      8543      8546      8548
      8543      8546      8549      8544      8543      8545      8544      8543      8546
      8545      8543      8546      8547      8546      8548      8547      8546      8549
      8548      8546      8549      8550      8553      8554      8550      8555      8556
      8550      8555      8557      8550      8555      8559      8551      8550      8552
      8551      8550      8553      8551      8550      8555      8552      8550      8553
      8552      8550      8555      8553      8550      8555      8555      8557      8558
      8555      8559      8560      8555      8559      8561      8555      8559      8566
      8556      8555      8557      8556      8555      8559      8557      8555      8559
      8559      8566      8562      8560      8559      8561      8560      8559      8566
      8561      8559      8566      8562      8565      8567      8563      8562      8564
      8563      8562      8565      8563      8562      8566      8564      8562      8565
      8564      8562      8566      8565      8562      8566      8565      8567      8568
      8565      8567      8569      8565      8567      8570      8567      8570      8571
      8567      8570      8572      8567      8570      8578      8568      8567      8569
      8568      8567      8570      8569      8567      8570      8570      8572      8573
      8570      8578      8579      8570      8578      8580      8570      8578      8581
      8571      8570      8572      8571      8570      8578      8572      8570      8578
      8572      8573      8574      8572      8573      8575      8573      8575      8576
      8573      8575      8577      8573      8575      8587      8574      8573      8575
      8575      8587      8588      8575      8587      8589      8575      8587      8590
      8576      8575      8577      8576      8575      8587      8577      8575      8587
      8578      8581      8582      8579      8578      8580      8579      8578      8581
      8580      8578      8581      8581      8582      8583      8581      8582      8584
      8582      8584      8585      8582      8584      8586      8582      8584      8631
      8583      8582      8584      8584      8631      8632      8584      8631      8633
      8584      8631      8634      8585      8584      8586      8585      8584      8631
      8586      8584      8631      8587      8590      8591      8587      8590      8592
      8587      8590      8593      8588      8587      8589      8588      8587      8590
      8589      8587      8590      8590      8593      8594      8590      8593      8595
      8590      8593      8596      8591      8590      8592      8591      8590      8593
      8592      8590      8593      8593      8596      8597      8593      8596      8598
      8593      8596      8599      8594      8593      8595      8594      8593      8596
      8595      8593      8596      8596      8599      8600      8596      8599      8601
      8596      8599      8602      8597      8596      8598      8597      8596      8599
      8598      8596      8599      8599      8602      8603      8599      8602      8604
      8599      8602      8605      8600      8599      8601      8600      8599      8602
      8601      8599      8602      8602      8605      8606      8602      8605      8607
      8602      8605      8610      8603      8602      8604      8603      8602      8605
      8604      8602      8605      8605      8607      8608      8605      8607      8609
      8605      8607      8610      8605      8610      8607      8605      8610      8611
      8605      8610      8612      8606      8605      8607      8606      8605      8610
      8607      8605      8610      8607      8610      8611      8607      8610      8612
      8608      8607      8609      8608      8607      8610      8609      8607      8610
      8610      8612      8613      8610      8612      8614      8610      8612      8615
      8611      8610      8612      8612      8615      8616      8612      8615      8617
      8612      8615      8618      8613      8612      8614      8613      8612      8615
      8614      8612      8615      8615      8618      8619      8615      8618      8620
      8615      8618      8621      8616      8615      8617      8616      8615      8618
      8617      8615      8618      8618      8621      8622      8618      8621      8623
      8618      8621      8624      8619      8618      8620      8619      8618      8621
      8620      8618      8621      8621      8624      8625      8621      8624      8626
      8621      8624      8627      8622      8621      8623      8622      8621      8624
      8623      8621      8624      8624      8627      8628      8624      8627      8629
      8624      8627      8630      8625      8624      8626      8625      8624      8627
      8626      8624      8627      8628      8627      8629      8628      8627      8630
      8629      8627      8630      8631      8634      8635      8631      8634      8636
      8631      8634      8637      8632      8631      8633      8632      8631      8634
      8633      8631      8634      8634      8637      8638      8634      8637      8639
      8634      8637      8640      8635      8634      8636      8635      8634      8637
      8636      8634      8637      8637      8640      8641      8637      8640      8642
      8637      8640      8643      8638      8637      8639      8638      8637      8640
      8639      8637      8640      8640      8643      8644      8640      8643      8645
      8640      8643      8646      8641      8640      8642      8641      8640      8643
      8642      8640      8643      8643      8646      8647      8643      8646      8648
      8643      8646      8649      8644      8643      8645      8644      8643      8646
      8645      8643      8646      8646      8649      8650      8646      8649      8651
      8646      8649      8652      8647      8646      8648      8647      8646      8649
      8648      8646      8649      8649      8652      8653      8649      8652      8654
      8649      8652      8655      8650      8649      8651      8650      8649      8652
      8651      8649      8652      8652      8655      8656      8652      8655      8657
      8652      8655      8658      8653      8652      8654      8653      8652      8655
      8654      8652      8655      8655      8658      8659      8655      8658      8660
      8655      8658      8661      8656      8655      8657      8656      8655      8658
      8657      8655      8658      8658      8661      8662      8658      8661      8663
      8658      8661      8664      8659      8658      8660      8659      8658      8661
      8660      8658      8661      8661      8664      8665      8661      8664      8666
      8661      8664      8667      8662      8661      8663      8662      8661      8664
      8663      8661      8664      8664      8667      8668      8664      8667      8669
      8664      8667      8670      8665      8664      8666      8665      8664      8667
      8666      8664      8667      8667      8670      8671      8667      8670      8672
      8667      8670      8673      8668      8667      8669      8668      8667      8670
      8669      8667      8670      8671      8670      8672      8671      8670      8673
      8672      8670      8673      8674      8678      8679      8674      8678      8680
      8674      8678      8681      8675      8674      8676      8675      8674      8677
      8675      8674      8678      8676      8674      8677      8676      8674      8678
      8677      8674      8678      8678      8681      8682      8678      8681      8683
      8678      8681      8688      8679      8678      8680      8679      8678      8681
      8680      8678      8681      8681      8688      8684      8682      8681      8683
      8682      8681      8688      8683      8681      8688      8684      8687      8689
      8685      8684      8686      8685      8684      8687      8685      8684      8688
      8686      8684      8687      8686      8684      8688      8687      8684      8688
      8687      8689      8690      8687      8689      8691      8687      8689      8692
      8689      8692      8693      8689      8692      8694      8689      8692      8700
      8690      8689      8691      8690      8689      8692      8691      8689      8692
      8692      8694      8695      8692      8700      8701      8692      8700      8702
      8692      8700      8703      8693      8692      8694      8693      8692      8700
      8694      8692      8700      8694      8695      8696      8694      8695      8697
      8695      8697      8698      8695      8697      8699      8695      8697      8709
      8696      8695      8697      8697      8709      8710      8697      8709      8711
      8697      8709      8712      8698      8697      8699      8698      8697      8709
      8699      8697      8709      8700      8703      8704      8701      8700      8702
      8701      8700      8703      8702      8700      8703      8703      8704      8705
      8703      8704      8706      8704      8706      8707      8704      8706      8708
      8704      8706      8750      8705      8704      8706      8706      8750      8751
      8706      8750      8752      8706      8750      8753      8707      8706      8708
      8707      8706      8750      8708      8706      8750      8709      8712      8713
      8709      8712      8714      8709      8712      8715      8710      8709      8711
      8710      8709      8712      8711      8709      8712      8712      8715      8716
      8712      8715      8717      8712      8715      8718      8713      8712      8714
      8713      8712      8715      8714      8712      8715      8715      8718      8719
      8715      8718      8720      8715      8718      8721      8716      8715      8717
      8716      8715      8718      8717      8715      8718      8718      8721      8722
      8718      8721      8723      8718      8721      8724      8719      8718      8720
      8719      8718      8721      8720      8718      8721      8721      8724      8725
      8721      8724      8726      8721      8724      8727      8722      8721      8723
      8722      8721      8724      8723      8721      8724      8724      8727      8728
      8724      8727      8729      8725      8724      8726      8725      8724      8727
      8726      8724      8727      8727      8729      8730      8727      8729      8731
      8728      8727      8729      8729      8731      8732      8729      8731      8733
      8729      8731      8734      8730      8729      8731      8731      8734      8735
      8731      8734      8736      8731      8734      8737      8732      8731      8733
      8732      8731      8734      8733      8731      8734      8734      8737      8738
      8734      8737      8739      8734      8737      8740      8735      8734      8736
      8735      8734      8737      8736      8734      8737      8737      8740      8741
      8737      8740      8742      8737      8740      8743      8738      8737      8739
      8738      8737      8740      8739      8737      8740      8740      8743      8744
      8740      8743      8745      8740      8743      8746      8741      8740      8742
      8741      8740      8743      8742      8740      8743      8743      8746      8747
      8743      8746      8748      8743      8746      8749      8744      8743      8745
      8744      8743      8746      8745      8743      8746      8747      8746      8748
      8747      8746      8749      8748      8746      8749      8750      8753      8754
      8750      8753      8755      8750      8753      8756      8751      8750      8752
      8751      8750      8753      8752      8750      8753      8753      8756      8757
      8753      8756      8758      8753      8756      8759      8754      8753      8755
      8754      8753      8756      8755      8753      8756      8756      8759      8760
      8756      8759      8761      8756      8759      8762      8757      8756      8758
      8757      8756      8759      8758      8756      8759      8759      8762      8763
      8759      8762      8764      8759      8762      8765      8760      8759      8761
      8760      8759      8762      8761      8759      8762      8762      8765      8766
      8762      8765      8767      8762      8765      8768      8763      8762      8764
      8763      8762      8765      8764      8762      8765      8765      8768      8769
      8765      8768      8770      8766      8765      8767      8766      8765      8768
      8767      8765      8768      8768      8770      8771      8768      8770      8772
      8769      8768      8770      8770      8772      8773      8770      8772      8774
      8770      8772      8775      8771      8770      8772      8772      8775      8776
      8772      8775      8777      8772      8775      8778      8773      8772      8774
      8773      8772      8775      8774      8772      8775      8775      8778      8779
      8775      8778      8780      8775      8778      8781      8776      8775      8777
      8776      8775      8778      8777      8775      8778      8778      8781      8782
      8778      8781      8783      8778      8781      8784      8779      8778      8780
      8779      8778      8781      8780      8778      8781      8781      8784      8785
      8781      8784      8786      8781      8784      8787      8782      8781      8783
      8782      8781      8784      8783      8781      8784      8784      8787      8788
      8784      8787      8789      8784      8787      8790      8785      8784      8786
      8785      8784      8787      8786      8784      8787      8787      8790      8791
      8787      8790      8792      8787      8790      8793      8788      8787      8789
      8788      8787      8790      8789      8787      8790      8790      8793      8794
      8790      8793      8795      8790      8793      8796      8791      8790      8792
      8791      8790      8793      8792      8790      8793      8794      8793      8795
      8794      8793      8796      8795      8793      8796      8797      8801      8802
      8797      8801      8803      8797      8801      8804      8798      8797      8799
      8798      8797      8800      8798      8797      8801      8799      8797      8800
      8799      8797      8801      8800      8797      8801      8801      8804      8805
      8801      8804      8806      8801      8804      8811      8802      8801      8803
      8802      8801      8804      8803      8801      8804      8804      8811      8807
      8805      8804      8806      8805      8804      8811      8806      8804      8811
      8807      8810      8812      8808      8807      8809      8808      8807      8810
      8808      8807      8811      8809      8807      8810      8809      8807      8811
      8810      8807      8811      8810      8812      8813      8810      8812      8814
      8810      8812      8815      8812      8815      8816      8812      8815      8817
      8812      8815      8823      8813      8812      8814      8813      8812      8815
      8814      8812      8815      8815      8817      8818      8815      8823      8824
      8815      8823      8825      8815      8823      8826      8816      8815      8817
      8816      8815      8823      8817      8815      8823      8817      8818      8819
      8817      8818      8820      8818      8820      8821      8818      8820      8822
      8818      8820      8832      8819      8818      8820      8820      8832      8833
      8820      8832      8834      8820      8832      8835      8821      8820      8822
      8821      8820      8832      8822      8820      8832      8823      8826      8827
      8824      8823      8825      8824      8823      8826      8825      8823      8826
      8826      8827      8828      8826      8827      8829      8827      8829      8830
      8827      8829      8831      8827      8829      8876      8828      8827      8829
      8829      8876      8877      8829      8876      8878      8829      8876      8879
      8830      8829      8831      8830      8829      8876      8831      8829      8876
      8832      8835      8836      8832      8835      8837      8832      8835      8838
      8833      8832      8834      8833      8832      8835      8834      8832      8835
      8835      8838      8839      8835      8838      8840      8835      8838      8841
      8836      8835      8837      8836      8835      8838      8837      8835      8838
      8838      8841      8842      8838      8841      8843      8838      8841      8844
      8839      8838      8840      8839      8838      8841      8840      8838      8841
      8841      8844      8845      8841      8844      8846      8841      8844      8847
      8842      8841      8843      8842      8841      8844      8843      8841      8844
      8844      8847      8848      8844      8847      8849      8844      8847      8850
      8845      8844      8846      8845      8844      8847      8846      8844      8847
      8847      8850      8851      8847      8850      8852      8847      8850      8855
      8848      8847      8849      8848      8847      8850      8849      8847      8850
      8850      8852      8853      8850      8852      8854      8850      8852      8855
      8850      8855      8852      8850      8855      8856      8850      8855      8857
      8851      8850      8852      8851      8850      8855      8852      8850      8855
      8852      8855      8856      8852      8855      8857      8853      8852      8854
      8853      8852      8855      8854      8852      8855      8855      8857      8858
      8855      8857      8859      8855      8857      8860      8856      8855      8857
      8857      8860      8861      8857      8860      8862      8857      8860      8863
      8858      8857      8859      8858      8857      8860      8859      8857      8860
      8860      8863      8864      8860      8863      8865      8860      8863      8866
      8861      8860      8862      8861      8860      8863      8862      8860      8863
      8863      8866      8867      8863      8866      8868      8863      8866      8869
      8864      8863      8865      8864      8863      8866      8865      8863      8866
      8866      8869      8870      8866      8869      8871      8866      8869      8872
      8867      8866      8868      8867      8866      8869      8868      8866      8869
      8869      8872      8873      8869      8872      8874      8869      8872      8875
      8870      8869      8871      8870      8869      8872      8871      8869      8872
      8873      8872      8874      8873      8872      8875      8874      8872      8875
      8876      8879      8880      8876      8879      8881      8876      8879      8882
      8877      8876      8878      8877      8876      8879      8878      8876      8879
      8879      8882      8883      8879      8882      8884      8879      8882      8885
      8880      8879      8881      8880      8879      8882      8881      8879      8882
      8882      8885      8886      8882      8885      8887      8882      8885      8888
      8883      8882      8884      8883      8882      8885      8884      8882      8885
      8885      8888      8889      8885      8888      8890      8885      8888      8891
      8886      8885      8887      8886      8885      8888      8887      8885      8888
      8888      8891      8892      8888      8891      8893      8888      8891      8894
      8889      8888      8890      8889      8888      8891      8890      8888      8891
      8891      8894      8895      8891      8894      8896      8891      8894      8897
      8892      8891      8893      8892      8891      8894      8893      8891      8894
      8894      8897      8898      8894      8897      8899      8894      8897      8900
      8895      8894      8896      8895      8894      8897      8896      8894      8897
      8897      8900      8901      8897      8900      8902      8897      8900      8903
      8898      8897      8899      8898      8897      8900      8899      8897      8900
      8900      8903      8904      8900      8903      8905      8900      8903      8906
      8901      8900      8902      8901      8900      8903      8902      8900      8903
      8903      8906      8907      8903      8906      8908      8903      8906      8909
      8904      8903      8905      8904      8903      8906      8905      8903      8906
      8906      8909      8910      8906      8909      8911      8906      8909      8912
      8907      8906      8908      8907      8906      8909      8908      8906      8909
      8909      8912      8913      8909      8912      8914      8909      8912      8915
      8910      8909      8911      8910      8909      8912      8911      8909      8912
      8913      8912      8914      8913      8912      8915      8914      8912      8915
      8916      8919      8920      8916      8921      8922      8916      8921      8923
      8916      8921      8925      8917      8916      8918      8917      8916      8919
      8917      8916      8921      8918      8916      8919      8918      8916      8921
      8919      8916      8921      8921      8923      8924      8921      8925      8926
      8921      8925      8927      8921      8925      8932      8922      8921      8923
      8922      8921      8925      8923      8921      8925      8925      8932      8928
      8926      8925      8927      8926      8925      8932      8927      8925      8932
      8928      8931      8933      8929      8928      8930      8929      8928      8931
      8929      8928      8932      8930      8928      8931      8930      8928      8932
      8931      8928      8932      8931      8933      8934      8931      8933      8935
      8931      8933      8936      8933      8936      8937      8933      8936      8938
      8933      8936      8944      8934      8933      8935      8934      8933      8936
      8935      8933      8936      8936      8938      8939      8936      8944      8945
      8936      8944      8946      8936      8944      8947      8937      8936      8938
      8937      8936      8944      8938      8936      8944      8938      8939      8940
      8938      8939      8941      8939      8941      8942      8939      8941      8943
      8939      8941      8953      8940      8939      8941      8941      8953      8954
      8941      8953      8955      8941      8953      8956      8942      8941      8943
      8942      8941      8953      8943      8941      8953      8944      8947      8948
      8945      8944      8946      8945      8944      8947      8946      8944      8947
      8947      8948      8949      8947      8948      8950      8948      8950      8951
      8948      8950      8952      8948      8950      8997      8949      8948      8950
      8950      8997      8998      8950      8997      8999      8950      8997      9000
      8951      8950      8952      8951      8950      8997      8952      8950      8997
      8953      8956      8957      8953      8956      8958      8953      8956      8959
      8954      8953      8955      8954      8953      8956      8955      8953      8956
      8956      8959      8960      8956      8959      8961      8956      8959      8962
      8957      8956      8958      8957      8956      8959      8958      8956      8959
      8959      8962      8963      8959      8962      8964      8959      8962      8965
      8960      8959      8961      8960      8959      8962      8961      8959      8962
      8962      8965      8966      8962      8965      8967      8962      8965      8968
      8963      8962      8964      8963      8962      8965      8964      8962      8965
      8965      8968      8969      8965      8968      8970      8965      8968      8971
      8966      8965      8967      8966      8965      8968      8967      8965      8968
      8968      8971      8972      8968      8971      8973      8968      8971      8976
      8969      8968      8970      8969      8968      8971      8970      8968      8971
      8971      8973      8974      8971      8973      8975      8971      8973      8976
      8971      8976      8973      8971      8976      8977      8971      8976      8978
      8972      8971      8973      8972      8971      8976      8973      8971      8976
      8973      8976      8977      8973      8976      8978      8974      8973      8975
      8974      8973      8976      8975      8973      8976      8976      8978      8979
      8976      8978      8980      8976      8978      8981      8977      8976      8978
      8978      8981      8982      8978      8981      8983      8978      8981      8984
      8979      8978      8980      8979      8978      8981      8980      8978      8981
      8981      8984      8985      8981      8984      8986      8981      8984      8987
      8982      8981      8983      8982      8981      8984      8983      8981      8984
      8984      8987      8988      8984      8987      8989      8984      8987      8990
      8985      8984      8986      8985      8984      8987      8986      8984      8987
      8987      8990      8991      8987      8990      8992      8987      8990      8993
      8988      8987      8989      8988      8987      8990      8989      8987      8990
      8990      8993      8994      8990      8993      8995      8990      8993      8996
      8991      8990      8992      8991      8990      8993      8992      8990      8993
      8994      8993      8995      8994      8993      8996      8995      8993      8996
      8997      9000      9001      8997      9000      9002      8997      9000      9003
      8998      8997      8999      8998      8997      9000      8999      8997      9000
      9000      9003      9004      9000      9003      9005      9000      9003      9006
      9001      9000      9002      9001      9000      9003      9002      9000      9003
      9003      9006      9007      9003      9006      9008      9003      9006      9009
      9004      9003      9005      9004      9003      9006      9005      9003      9006
      9006      9009      9010      9006      9009      9011      9006      9009      9012
      9007      9006      9008      9007      9006      9009      9008      9006      9009
      9009      9012      9013      9009      9012      9014      9009      9012      9015
      9010      9009      9011      9010      9009      9012      9011      9009      9012
      9012      9015      9016      9012      9015      9017      9012      9015      9018
      9013      9012      9014      9013      9012      9015      9014      9012      9015
      9015      9018      9019      9015      9018      9020      9015      9018      9021
      9016      9015      9017      9016      9015      9018      9017      9015      9018
      9018      9021      9022      9018      9021      9023      9018      9021      9024
      9019      9018      9020      9019      9018      9021      9020      9018      9021
      9021      9024      9025      9021      9024      9026      9021      9024      9027
      9022      9021      9023      9022      9021      9024      9023      9021      9024
      9024      9027      9028      9024      9027      9029      9024      9027      9030
      9025      9024      9026      9025      9024      9027      9026      9024      9027
      9027      9030      9031      9027      9030      9032      9027      9030      9033
      9028      9027      9029      9028      9027      9030      9029      9027      9030
      9030      9033      9034      9030      9033      9035      9030      9033      9036
      9031      9030      9032      9031      9030      9033      9032      9030      9033
      9033      9036      9037      9033      9036      9038      9033      9036      9039
      9034      9033      9035      9034      9033      9036      9035      9033      9036
      9037      9036      9038      9037      9036      9039      9038      9036      9039
      9040      9044      9045      9040      9044      9046      9040      9044      9047
      9041      9040      9042      9041      9040      9043      9041      9040      9044
      9042      9040      9043      9042      9040      9044      9043      9040      9044
      9044      9047      9048      9044      9047      9049      9044      9047      9054
      9045      9044      9046      9045      9044      9047      9046      9044      9047
      9047      9054      9050      9048      9047      9049      9048      9047      9054
      9049      9047      9054      9050      9053      9055      9051      9050      9052
      9051      9050      9053      9051      9050      9054      9052      9050      9053
      9052      9050      9054      9053      9050      9054      9053      9055      9056
      9053      9055      9057      9053      9055      9058      9055      9058      9059
      9055      9058      9060      9055      9058      9066      9056      9055      9057
      9056      9055      9058      9057      9055      9058      9058      9060      9061
      9058      9066      9067      9058      9066      9068      9058      9066      9069
      9059      9058      9060      9059      9058      9066      9060      9058      9066
      9060      9061      9062      9060      9061      9063      9061      9063      9064
      9061      9063      9065      9061      9063      9075      9062      9061      9063
      9063      9075      9076      9063      9075      9077      9063      9075      9078
      9064      9063      9065      9064      9063      9075      9065      9063      9075
      9066      9069      9070      9067      9066      9068      9067      9066      9069
      9068      9066      9069      9069      9070      9071      9069      9070      9072
      9070      9072      9073      9070      9072      9074      9070      9072      9122
      9071      9070      9072      9072      9122      9123      9072      9122      9124
      9072      9122      9125      9073      9072      9074      9073      9072      9122
      9074      9072      9122      9075      9078      9079      9075      9078      9080
      9075      9078      9081      9076      9075      9077      9076      9075      9078
      9077      9075      9078      9078      9081      9082      9078      9081      9083
      9078      9081      9084      9079      9078      9080      9079      9078      9081
      9080      9078      9081      9081      9084      9085      9081      9084      9086
      9081      9084      9087      9082      9081      9083      9082      9081      9084
      9083      9081      9084      9084      9087      9088      9084      9087      9089
      9084      9087      9090      9085      9084      9086      9085      9084      9087
      9086      9084      9087      9087      9090      9091      9087      9090      9092
      9087      9090      9093      9088      9087      9089      9088      9087      9090
      9089      9087      9090      9090      9093      9094      9090      9093      9095
      9091      9090      9092      9091      9090      9093      9092      9090      9093
      9093      9095      9096      9093      9095      9097      9094      9093      9095
      9095      9097      9098      9095      9097      9099      9095      9097      9100
      9096      9095      9097      9097      9100      9101      9097      9100      9102
      9097      9100      9103      9098      9097      9099      9098      9097      9100
      9099      9097      9100      9100      9103      9104      9100      9103      9105
      9100      9103      9106      9101      9100      9102      9101      9100      9103
      9102      9100      9103      9103      9106      9107      9103      9106      9108
      9103      9106      9109      9104      9103      9105      9104      9103      9106
      9105      9103      9106      9106      9109      9110      9106      9109      9111
      9106      9109      9112      9107      9106      9108      9107      9106      9109
      9108      9106      9109      9109      9112      9113      9109      9112      9114
      9109      9112      9115      9110      9109      9111      9110      9109      9112
      9111      9109      9112      9112      9115      9116      9112      9115      9117
      9112      9115      9118      9113      9112      9114      9113      9112      9115
      9114      9112      9115      9115      9118      9119      9115      9118      9120
      9115      9118      9121      9116      9115      9117      9116      9115      9118
      9117      9115      9118      9119      9118      9120      9119      9118      9121
      9120      9118      9121      9122      9125      9126      9122      9125      9127
      9122      9125      9128      9123      9122      9124      9123      9122      9125
      9124      9122      9125      9125      9128      9129      9125      9128      9130
      9125      9128      9131      9126      9125      9127      9126      9125      9128
      9127      9125      9128      9128      9131      9132      9128      9131      9133
      9128      9131      9134      9129      9128      9130      9129      9128      9131
      9130      9128      9131      9131      9134      9135      9131      9134      9136
      9131      9134      9137      9132      9131      9133      9132      9131      9134
      9133      9131      9134      9134      9137      9138      9134      9137      9139
      9134      9137      9140      9135      9134      9136      9135      9134      9137
      9136      9134      9137      9137      9140      9141      9137      9140      9142
      9137      9140      9143      9138      9137      9139      9138      9137      9140
      9139      9137      9140      9140      9143      9144      9140      9143      9145
      9140      9143      9146      9141      9140      9142      9141      9140      9143
      9142      9140      9143      9143      9146      9147      9143      9146      9148
      9143      9146      9149      9144      9143      9145      9144      9143      9146
      9145      9143      9146      9146      9149      9150      9146      9149      9151
      9146      9149      9152      9147      9146      9148      9147      9146      9149
      9148      9146      9149      9149      9152      9153      9149      9152      9154
      9149      9152      9155      9150      9149      9151      9150      9149      9152
      9151      9149      9152      9152      9155      9156      9152      9155      9157
      9152      9155      9158      9153      9152      9154      9153      9152      9155
      9154      9152      9155      9155      9158      9159      9155      9158      9160
      9155      9158      9161      9156      9155      9157      9156      9155      9158
      9157      9155      9158      9158      9161      9162      9158      9161      9163
      9158      9161      9164      9159      9158      9160      9159      9158      9161
      9160      9158      9161      9162      9161      9163      9162      9161      9164
      9163      9161      9164      9165      9169      9170      9165      9169      9171
      9165      9169      9172      9166      9165      9167      9166      9165      9168
      9166      9165      9169      9167      9165      9168      9167      9165      9169
      9168      9165      9169      9169      9172      9173      9169      9172      9174
      9169      9172      9179      9170      9169      9171      9170      9169      9172
      9171      9169      9172      9172      9179      9175      9173      9172      9174
      9173      9172      9179      9174      9172      9179      9175      9178      9180
      9176      9175      9177      9176      9175      9178      9176      9175      9179
      9177      9175      9178      9177      9175      9179      9178      9175      9179
      9178      9180      9181      9178      9180      9182      9178      9180      9183
      9180      9183      9184      9180      9183      9185      9180      9183      9191
      9181      9180      9182      9181      9180      9183      9182      9180      9183
      9183      9185      9186      9183      9191      9192      9183      9191      9193
      9183      9191      9194      9184      9183      9185      9184      9183      9191
      9185      9183      9191      9185      9186      9187      9185      9186      9188
      9186      9188      9189      9186      9188      9190      9186      9188      9200
      9187      9186      9188      9188      9200      9201      9188      9200      9202
      9188      9200      9203      9189      9188      9190      9189      9188      9200
      9190      9188      9200      9191      9194      9195      9192      9191      9193
      9192      9191      9194      9193      9191      9194      9194      9195      9196
      9194      9195      9197      9195      9197      9198      9195      9197      9199
      9195      9197      9244      9196      9195      9197      9197      9244      9245
      9197      9244      9246      9197      9244      9247      9198      9197      9199
      9198      9197      9244      9199      9197      9244      9200      9203      9204
      9200      9203      9205      9200      9203      9206      9201      9200      9202
      9201      9200      9203      9202      9200      9203      9203      9206      9207
      9203      9206      9208      9203      9206      9209      9204      9203      9205
      9204      9203      9206      9205      9203      9206      9206      9209      9210
      9206      9209      9211      9206      9209      9212      9207      9206      9208
      9207      9206      9209      9208      9206      9209      9209      9212      9213
      9209      9212      9214      9209      9212      9215      9210      9209      9211
      9210      9209      9212      9211      9209      9212      9212      9215      9216
      9212      9215      9217      9212      9215      9218      9213      9212      9214
      9213      9212      9215      9214      9212      9215      9215      9218      9219
      9215      9218      9220      9215      9218      9223      9216      9215      9217
      9216      9215      9218      9217      9215      9218      9218      9220      9221
      9218      9220      9222      9218      9220      9223      9218      9223      9220
      9218      9223      9224      9218      9223      9225      9219      9218      9220
      9219      9218      9223      9220      9218      9223      9220      9223      9224
      9220      9223      9225      9221      9220      9222      9221      9220      9223
      9222      9220      9223      9223      9225      9226      9223      9225      9227
      9223      9225      9228      9224      9223      9225      9225      9228      9229
      9225      9228      9230      9225      9228      9231      9226      9225      9227
      9226      9225      9228      9227      9225      9228      9228      9231      9232
      9228      9231      9233      9228      9231      9234      9229      9228      9230
      9229      9228      9231      9230      9228      9231      9231      9234      9235
      9231      9234      9236      9231      9234      9237      9232      9231      9233
      9232      9231      9234      9233      9231      9234      9234      9237      9238
      9234      9237      9239      9234      9237      9240      9235      9234      9236
      9235      9234      9237      9236      9234      9237      9237      9240      9241
      9237      9240      9242      9237      9240      9243      9238      9237      9239
      9238      9237      9240      9239      9237      9240      9241      9240      9242
      9241      9240      9243      9242      9240      9243      9244      9247      9248
      9244      9247      9249      9244      9247      9250      9245      9244      9246
      9245      9244      9247      9246      9244      9247      9247      9250      9251
      9247      9250      9252      9247      9250      9253      9248      9247      9249
      9248      9247      9250      9249      9247      9250      9250      9253      9254
      9250      9253      9255      9250      9253      9256      9251      9250      9252
      9251      9250      9253      9252      9250      9253      9253      9256      9257
      9253      9256      9258      9253      9256      9259      9254      9253      9255
      9254      9253      9256      9255      9253      9256      9256      9259      9260
      9256      9259      9261      9256      9259      9262      9257      9256      9258
      9257      9256      9259      9258      9256      9259      9259      9262      9263
      9259      9262      9264      9259      9262      9265      9260      9259      9261
      9260      9259      9262      9261      9259      9262      9262      9265      9266
      9262      9265      9267      9262      9265      9268      9263      9262      9264
      9263      9262      9265      9264      9262      9265      9265      9268      9269
      9265      9268      9270      9265      9268      9271      9266      9265      9267
      9266      9265      9268      9267      9265      9268      9268      9271      9272
      9268      9271      9273      9268      9271      9274      9269      9268      9270
      9269      9268      9271      9270      9268      9271      9271      9274      9275
      9271      9274      9276      9271      9274      9277      9272      9271      9273
      9272      9271      9274      9273      9271      9274      9274      9277      9278
      9274      9277      9279      9274      9277      9280      9275      9274      9276
      9275      9274      9277      9276      9274      9277      9277      9280      9281
      9277      9280      9282      9277      9280      9283      9278      9277      9279
      9278      9277      9280      9279      9277      9280      9280      9283      9284
      9280      9283      9285      9280      9283      9286      9281      9280      9282
      9281      9280      9283      9282      9280      9283      9284      9283      9285
      9284      9283      9286      9285      9283      9286      9287      9290      9291
      9287      9292      9293      9287      9292      9294      9287      9292      9296
      9288      9287      9289      9288      9287      9290      9288      9287      9292
      9289      9287      9290      9289      9287      9292      9290      9287      9292
      9292      9294      9295      9292      9296      9297      9292      9296      9298
      9292      9296      9303      9293      9292      9294      9293      9292      9296
      9294      9292      9296      9296      9303      9299      9297      9296      9298
      9297      9296      9303      9298      9296      9303      9299      9302      9304
      9300      9299      9301      9300      9299      9302      9300      9299      9303
      9301      9299      9302      9301      9299      9303      9302      9299      9303
      9302      9304      9305      9302      9304      9306      9302      9304      9307
      9304      9307      9308      9304      9307      9309      9304      9307      9315
      9305      9304      9306      9305      9304      9307      9306      9304      9307
      9307      9309      9310      9307      9315      9316      9307      9315      9317
      9307      9315      9318      9308      9307      9309      9308      9307      9315
      9309      9307      9315      9309      9310      9311      9309      9310      9312
      9310      9312      9313      9310      9312      9314      9310      9312      9324
      9311      9310      9312      9312      9324      9325      9312      9324      9326
      9312      9324      9327      9313      9312      9314      9313      9312      9324
      9314      9312      9324      9315      9318      9319      9316      9315      9317
      9316      9315      9318      9317      9315      9318      9318      9319      9320
      9318      9319      9321      9319      9321      9322      9319      9321      9323
      9319      9321      9365      9320      9319      9321      9321      9365      9366
      9321      9365      9367      9321      9365      9368      9322      9321      9323
      9322      9321      9365      9323      9321      9365      9324      9327      9328
      9324      9327      9329      9324      9327      9330      9325      9324      9326
      9325      9324      9327      9326      9324      9327      9327      9330      9331
      9327      9330      9332      9327      9330      9333      9328      9327      9329
      9328      9327      9330      9329      9327      9330      9330      9333      9334
      9330      9333      9335      9330      9333      9336      9331      9330      9332
      9331      9330      9333      9332      9330      9333      9333      9336      9337
      9333      9336      9338      9333      9336      9339      9334      9333      9335
      9334      9333      9336      9335      9333      9336      9336      9339      9340
      9336      9339      9341      9336      9339      9342      9337      9336      9338
      9337      9336      9339      9338      9336      9339      9339      9342      9343
      9339      9342      9344      9340      9339      9341      9340      9339      9342
      9341      9339      9342      9342      9344      9345      9342      9344      9346
      9343      9342      9344      9344      9346      9347      9344      9346      9348
      9344      9346      9349      9345      9344      9346      9346      9349      9350
      9346      9349      9351      9346      9349      9352      9347      9346      9348
      9347      9346      9349      9348      9346      9349      9349      9352      9353
      9349      9352      9354      9349      9352      9355      9350      9349      9351
      9350      9349      9352      9351      9349      9352      9352      9355      9356
      9352      9355      9357      9352      9355      9358      9353      9352      9354
      9353      9352      9355      9354      9352      9355      9355      9358      9359
      9355      9358      9360      9355      9358      9361      9356      9355      9357
      9356      9355      9358      9357      9355      9358      9358      9361      9362
      9358      9361      9363      9358      9361      9364      9359      9358      9360
      9359      9358      9361      9360      9358      9361      9362      9361      9363
      9362      9361      9364      9363      9361      9364      9365      9368      9369
      9365      9368      9370      9365      9368      9371      9366      9365      9367
      9366      9365      9368      9367      9365      9368      9368      9371      9372
      9368      9371      9373      9368      9371      9374      9369      9368      9370
      9369      9368      9371      9370      9368      9371      9371      9374      9375
      9371      9374      9376      9371      9374      9377      9372      9371      9373
      9372      9371      9374      9373      9371      9374      9374      9377      9378
      9374      9377      9379      9374      9377      9380      9375      9374      9376
      9375      9374      9377      9376      9374      9377      9377      9380      9381
      9377      9380      9382      9377      9380      9383      9378      9377      9379
      9378      9377      9380      9379      9377      9380      9380      9383      9384
      9380      9383      9385      9380      9383      9386      9381      9380      9382
      9381      9380      9383      9382      9380      9383      9383      9386      9387
      9383      9386      9388      9383      9386      9389      9384      9383      9385
      9384      9383      9386      9385      9383      9386      9386      9389      9390
      9386      9389      9391      9386      9389      9392      9387      9386      9388
      9387      9386      9389      9388      9386      9389      9389      9392      9393
      9389      9392      9394      9389      9392      9395      9390      9389      9391
      9390      9389      9392      9391      9389      9392      9392      9395      9396
      9392      9395      9397      9392      9395      9398      9393      9392      9394
      9393      9392      9395      9394      9392      9395      9395      9398      9399
      9395      9398      9400      9395      9398      9401      9396      9395      9397
      9396      9395      9398      9397      9395      9398      9398      9401      9402
      9398      9401      9403      9398      9401      9404      9399      9398      9400
      9399      9398      9401      9400      9398      9401      9401      9404      9405
      9401      9404      9406      9401      9404      9407      9402      9401      9403
      9402      9401      9404      9403      9401      9404      9405      9404      9406
      9405      9404      9407      9406      9404      9407      9408      9412      9413
      9408      9412      9414      9408      9412      9415      9409      9408      9410
      9409      9408      9411      9409      9408      9412      9410      9408      9411
      9410      9408      9412      9411      9408      9412      9412      9415      9416
      9412      9415      9417      9412      9415      9422      9413      9412      9414
      9413      9412      9415      9414      9412      9415      9415      9422      9418
      9416      9415      9417      9416      9415      9422      9417      9415      9422
      9418      9421      9423      9419      9418      9420      9419      9418      9421
      9419      9418      9422      9420      9418      9421      9420      9418      9422
      9421      9418      9422      9421      9423      9424      9421      9423      9425
      9421      9423      9426      9423      9426      9427      9423      9426      9428
      9423      9426      9434      9424      9423      9425      9424      9423      9426
      9425      9423      9426      9426      9428      9429      9426      9434      9435
      9426      9434      9436      9426      9434      9437      9427      9426      9428
      9427      9426      9434      9428      9426      9434      9428      9429      9430
      9428      9429      9431      9429      9431      9432      9429      9431      9433
      9429      9431      9443      9430      9429      9431      9431      9443      9444
      9431      9443      9445      9431      9443      9446      9432      9431      9433
      9432      9431      9443      9433      9431      9443      9434      9437      9438
      9435      9434      9436      9435      9434      9437      9436      9434      9437
      9437      9438      9439      9437      9438      9440      9438      9440      9441
      9438      9440      9442      9438      9440      9484      9439      9438      9440
      9440      9484      9485      9440      9484      9486      9440      9484      9487
      9441      9440      9442      9441      9440      9484      9442      9440      9484
      9443      9446      9447      9443      9446      9448      9443      9446      9449
      9444      9443      9445      9444      9443      9446      9445      9443      9446
      9446      9449      9450      9446      9449      9451      9446      9449      9452
      9447      9446      9448      9447      9446      9449      9448      9446      9449
      9449      9452      9453      9449      9452      9454      9449      9452      9455
      9450      9449      9451      9450      9449      9452      9451      9449      9452
      9452      9455      9456      9452      9455      9457      9452      9455      9458
      9453      9452      9454      9453      9452      9455      9454      9452      9455
      9455      9458      9459      9455      9458      9460      9455      9458      9461
      9456      9455      9457      9456      9455      9458      9457      9455      9458
      9458      9461      9462      9458      9461      9463      9459      9458      9460
      9459      9458      9461      9460      9458      9461      9461      9463      9464
      9461      9463      9465      9462      9461      9463      9463      9465      9466
      9463      9465      9467      9463      9465      9468      9464      9463      9465
      9465      9468      9469      9465      9468      9470      9465      9468      9471
      9466      9465      9467      9466      9465      9468      9467      9465      9468
      9468      9471      9472      9468      9471      9473      9468      9471      9474
      9469      9468      9470      9469      9468      9471      9470      9468      9471
      9471      9474      9475      9471      9474      9476      9471      9474      9477
      9472      9471      9473      9472      9471      9474      9473      9471      9474
      9474      9477      9478      9474      9477      9479      9474      9477      9480
      9475      9474      9476      9475      9474      9477      9476      9474      9477
      9477      9480      9481      9477      9480      9482      9477      9480      9483
      9478      9477      9479      9478      9477      9480      9479      9477      9480
      9481      9480      9482      9481      9480      9483      9482      9480      9483
      9484      9487      9488      9484      9487      9489      9484      9487      9490
      9485      9484      9486      9485      9484      9487      9486      9484      9487
      9487      9490      9491      9487      9490      9492      9487      9490      9493
      9488      9487      9489      9488      9487      9490      9489      9487      9490
      9490      9493      9494      9490      9493      9495      9490      9493      9496
      9491      9490      9492      9491      9490      9493      9492      9490      9493
      9493      9496      9497      9493      9496      9498      9493      9496      9499
      9494      9493      9495      9494      9493      9496      9495      9493      9496
      9496      9499      9500      9496      9499      9501      9496      9499      9502
      9497      9496      9498      9497      9496      9499      9498      9496      9499
      9499      9502      9503      9499      9502      9504      9500      9499      9501
      9500      9499      9502      9501      9499      9502      9502      9504      9505
      9502      9504      9506      9503      9502      9504      9504      9506      9507
      9504      9506      9508      9504      9506      9509      9505      9504      9506
      9506      9509      9510      9506      9509      9511      9506      9509      9512
      9507      9506      9508      9507      9506      9509      9508      9506      9509
      9509      9512      9513      9509      9512      9514      9509      9512      9515
      9510      9509      9511      9510      9509      9512      9511      9509      9512
      9512      9515      9516      9512      9515      9517      9512      9515      9518
      9513      9512      9514      9513      9512      9515      9514      9512      9515
      9515      9518      9519      9515      9518      9520      9515      9518      9521
      9516      9515      9517      9516      9515      9518      9517      9515      9518
      9518      9521      9522      9518      9521      9523      9518      9521      9524
      9519      9518      9520      9519      9518      9521      9520      9518      9521
      9521      9524      9525      9521      9524      9526      9521      9524      9527
      9522      9521      9523      9522      9521      9524      9523      9521      9524
      9524      9527      9528      9524      9527      9529      9524      9527      9530
      9525      9524      9526      9525      9524      9527      9526      9524      9527
      9528      9527      9529      9528      9527      9530      9529      9527      9530
      9531      9535      9536      9531      9535      9537      9531      9535      9538
      9532      9531      9533      9532      9531      9534      9532      9531      9535
      9533      9531      9534      9533      9531      9535      9534      9531      9535
      9535      9538      9539      9535      9538      9540      9535      9538      9545
      9536      9535      9537      9536      9535      9538      9537      9535      9538
      9538      9545      9541      9539      9538      9540      9539      9538      9545
      9540      9538      9545      9541      9544      9546      9542      9541      9543
      9542      9541      9544      9542      9541      9545      9543      9541      9544
      9543      9541      9545      9544      9541      9545      9544      9546      9547
      9544      9546      9548      9544      9546      9549      9546      9549      9550
      9546      9549      9551      9546      9549      9557      9547      9546      9548
      9547      9546      9549      9548      9546      9549      9549      9551      9552
      9549      9557      9558      9549      9557      9559      9549      9557      9560
      9550      9549      9551      9550      9549      9557      9551      9549      9557
      9551      9552      9553      9551      9552      9554      9552      9554      9555
      9552      9554      9556      9552      9554      9566      9553      9552      9554
      9554      9566      9567      9554      9566      9568      9554      9566      9569
      9555      9554      9556      9555      9554      9566      9556      9554      9566
      9557      9560      9561      9558      9557      9559      9558      9557      9560
      9559      9557      9560      9560      9561      9562      9560      9561      9563
      9561      9563      9564      9561      9563      9565      9561      9563      9610
      9562      9561      9563      9563      9610      9611      9563      9610      9612
      9563      9610      9613      9564      9563      9565      9564      9563      9610
      9565      9563      9610      9566      9569      9570      9566      9569      9571
      9566      9569      9572      9567      9566      9568      9567      9566      9569
      9568      9566      9569      9569      9572      9573      9569      9572      9574
      9569      9572      9575      9570      9569      9571      9570      9569      9572
      9571      9569      9572      9572      9575      9576      9572      9575      9577
      9572      9575      9578      9573      9572      9574      9573      9572      9575
      9574      9572      9575      9575      9578      9579      9575      9578      9580
      9575      9578      9581      9576      9575      9577      9576      9575      9578
      9577      9575      9578      9578      9581      9582      9578      9581      9583
      9578      9581      9584      9579      9578      9580      9579      9578      9581
      9580      9578      9581      9581      9584      9585      9581      9584      9586
      9581      9584      9589      9582      9581      9583      9582      9581      9584
      9583      9581      9584      9584      9586      9587      9584      9586      9588
      9584      9586      9589      9584      9589      9586      9584      9589      9590
      9584      9589      9591      9585      9584      9586      9585      9584      9589
      9586      9584      9589      9586      9589      9590      9586      9589      9591
      9587      9586      9588      9587      9586      9589      9588      9586      9589
      9589      9591      9592      9589      9591      9593      9589      9591      9594
      9590      9589      9591      9591      9594      9595      9591      9594      9596
      9591      9594      9597      9592      9591      9593      9592      9591      9594
      9593      9591      9594      9594      9597      9598      9594      9597      9599
      9594      9597      9600      9595      9594      9596      9595      9594      9597
      9596      9594      9597      9597      9600      9601      9597      9600      9602
      9597      9600      9603      9598      9597      9599      9598      9597      9600
      9599      9597      9600      9600      9603      9604      9600      9603      9605
      9600      9603      9606      9601      9600      9602      9601      9600      9603
      9602      9600      9603      9603      9606      9607      9603      9606      9608
      9603      9606      9609      9604      9603      9605      9604      9603      9606
      9605      9603      9606      9607      9606      9608      9607      9606      9609
      9608      9606      9609      9610      9613      9614      9610      9613      9615
      9610      9613      9616      9611      9610      9612      9611      9610      9613
      9612      9610      9613      9613      9616      9617      9613      9616      9618
      9613      9616      9619      9614      9613      9615      9614      9613      9616
      9615      9613      9616      9616      9619      9620      9616      9619      9621
      9616      9619      9622      9617      9616      9618      9617      9616      9619
      9618      9616      9619      9619      9622      9623      9619      9622      9624
      9619      9622      9625      9620      9619      9621      9620      9619      9622
      9621      9619      9622      9622      9625      9626      9622      9625      9627
      9622      9625      9628      9623      9622      9624      9623      9622      9625
      9624      9622      9625      9625      9628      9629      9625      9628      9630
      9625      9628      9631      9626      9625      9627      9626      9625      9628
      9627      9625      9628      9628      9631      9632      9628      9631      9633
      9628      9631      9634      9629      9628      9630      9629      9628      9631
      9630      9628      9631      9631      9634      9635      9631      9634      9636
      9631      9634      9637      9632      9631      9633      9632      9631      9634
      9633      9631      9634      9634      9637      9638      9634      9637      9639
      9634      9637      9640      9635      9634      9636      9635      9634      9637
      9636      9634      9637      9637      9640      9641      9637      9640      9642
      9637      9640      9643      9638      9637      9639      9638      9637      9640
      9639      9637      9640      9640      9643      9644      9640      9643      9645
      9640      9643      9646      9641      9640      9642      9641      9640      9643
      9642      9640      9643      9643      9646      9647      9643      9646      9648
      9643      9646      9649      9644      9643      9645      9644      9643      9646
      9645      9643      9646      9646      9649      9650      9646      9649      9651
      9646      9649      9652      9647      9646      9648      9647      9646      9649
      9648      9646      9649      9650      9649      9651      9650      9649      9652
      9651      9649      9652      9653      9657      9658      9653      9657      9659
      9653      9657      9660      9654      9653      9655      9654      9653      9656
      9654      9653      9657      9655      9653      9656      9655      9653      9657
      9656      9653      9657      9657      9660      9661      9657      9660      9662
      9657      9660      9667      9658      9657      9659      9658      9657      9660
      9659      9657      9660      9660      9667      9663      9661      9660      9662
      9661      9660      9667      9662      9660      9667      9663      9666      9668
      9664      9663      9665      9664      9663      9666      9664      9663      9667
      9665      9663      9666      9665      9663      9667      9666      9663      9667
      9666      9668      9669      9666      9668      9670      9666      9668      9671
      9668      9671      9672      9668      9671      9673      9668      9671      9679
      9669      9668      9670      9669      9668      9671      9670      9668      9671
      9671      9673      9674      9671      9679      9680      9671      9679      9681
      9671      9679      9682      9672      9671      9673      9672      9671      9679
      9673      9671      9679      9673      9674      9675      9673      9674      9676
      9674      9676      9677      9674      9676      9678      9674      9676      9688
      9675      9674      9676      9676      9688      9689      9676      9688      9690
      9676      9688      9691      9677      9676      9678      9677      9676      9688
      9678      9676      9688      9679      9682      9683      9680      9679      9681
      9680      9679      9682      9681      9679      9682      9682      9683      9684
      9682      9683      9685      9683      9685      9686      9683      9685      9687
      9683      9685      9732      9684      9683      9685      9685      9732      9733
      9685      9732      9734      9685      9732      9735      9686      9685      9687
      9686      9685      9732      9687      9685      9732      9688      9691      9692
      9688      9691      9693      9688      9691      9694      9689      9688      9690
      9689      9688      9691      9690      9688      9691      9691      9694      9695
      9691      9694      9696      9691      9694      9697      9692      9691      9693
      9692      9691      9694      9693      9691      9694      9694      9697      9698
      9694      9697      9699      9694      9697      9700      9695      9694      9696
      9695      9694      9697      9696      9694      9697      9697      9700      9701
      9697      9700      9702      9697      9700      9703      9698      9697      9699
      9698      9697      9700      9699      9697      9700      9700      9703      9704
      9700      9703      9705      9700      9703      9706      9701      9700      9702
      9701      9700      9703      9702      9700      9703      9703      9706      9707
      9703      9706      9708      9703      9706      9711      9704      9703      9705
      9704      9703      9706      9705      9703      9706      9706      9708      9709
      9706      9708      9710      9706      9708      9711      9706      9711      9708
      9706      9711      9712      9706      9711      9713      9707      9706      9708
      9707      9706      9711      9708      9706      9711      9708      9711      9712
      9708      9711      9713      9709      9708      9710      9709      9708      9711
      9710      9708      9711      9711      9713      9714      9711      9713      9715
      9711      9713      9716      9712      9711      9713      9713      9716      9717
      9713      9716      9718      9713      9716      9719      9714      9713      9715
      9714      9713      9716      9715      9713      9716      9716      9719      9720
      9716      9719      9721      9716      9719      9722      9717      9716      9718
      9717      9716      9719      9718      9716      9719      9719      9722      9723
      9719      9722      9724      9719      9722      9725      9720      9719      9721
      9720      9719      9722      9721      9719      9722      9722      9725      9726
      9722      9725      9727      9722      9725      9728      9723      9722      9724
      9723      9722      9725      9724      9722      9725      9725      9728      9729
      9725      9728      9730      9725      9728      9731      9726      9725      9727
      9726      9725      9728      9727      9725      9728      9729      9728      9730
      9729      9728      9731      9730      9728      9731      9732      9735      9736
      9732      9735      9737      9732      9735      9738      9733      9732      9734
      9733      9732      9735      9734      9732      9735      9735      9738      9739
      9735      9738      9740      9735      9738      9741      9736      9735      9737
      9736      9735      9738      9737      9735      9738      9738      9741      9742
      9738      9741      9743      9738      9741      9744      9739      9738      9740
      9739      9738      9741      9740      9738      9741      9741      9744      9745
      9741      9744      9746      9741      9744      9747      9742      9741      9743
      9742      9741      9744      9743      9741      9744      9744      9747      9748
      9744      9747      9749      9744      9747      9750      9745      9744      9746
      9745      9744      9747      9746      9744      9747      9747      9750      9751
      9747      9750      9752      9747      9750      9753      9748      9747      9749
      9748      9747      9750      9749      9747      9750      9750      9753      9754
      9750      9753      9755      9750      9753      9756      9751      9750      9752
      9751      9750      9753      9752      9750      9753      9753      9756      9757
      9753      9756      9758      9753      9756      9759      9754      9753      9755
      9754      9753      9756      9755      9753      9756      9756      9759      9760
      9756      9759      9761      9756      9759      9762      9757      9756      9758
      9757      9756      9759      9758      9756      9759      9759      9762      9763
      9759      9762      9764      9759      9762      9765      9760      9759      9761
      9760      9759      9762      9761      9759      9762      9762      9765      9766
      9762      9765      9767      9762      9765      9768      9763      9762      9764
      9763      9762      9765      9764      9762      9765      9765      9768      9769
      9765      9768      9770      9765      9768      9771      9766      9765      9767
      9766      9765      9768      9767      9765      9768      9768      9771      9772
      9768      9771      9773      9768      9771      9774      9769      9768      9770
      9769      9768      9771      9770      9768      9771      9772      9771      9773
      9772      9771      9774      9773      9771      9774      9775      9779      9780
      9775      9779      9781      9775      9779      9782      9776      9775      9777
      9776      9775      9778      9776      9775      9779      9777      9775      9778
      9777      9775      9779      9778      9775      9779      9779      9782      9783
      9779      9782      9784      9779      9782      9789      9780      9779      9781
      9780      9779      9782      9781      9779      9782      9782      9789      9785
      9783      9782      9784      9783      9782      9789      9784      9782      9789
      9785      9788      9790      9786      9785      9787      9786      9785      9788
      9786      9785      9789      9787      9785      9788      9787      9785      9789
      9788      9785      9789      9788      9790      9791      9788      9790      9792
      9788      9790      9793      9790      9793      9794      9790      9793      9795
      9790      9793      9801      9791      9790      9792      9791      9790      9793
      9792      9790      9793      9793      9795      9796      9793      9801      9802
      9793      9801      9803      9793      9801      9804      9794      9793      9795
      9794      9793      9801      9795      9793      9801      9795      9796      9797
      9795      9796      9798      9796      9798      9799      9796      9798      9800
      9796      9798      9810      9797      9796      9798      9798      9810      9811
      9798      9810      9812      9798      9810      9813      9799      9798      9800
      9799      9798      9810      9800      9798      9810      9801      9804      9805
      9802      9801      9803      9802      9801      9804      9803      9801      9804
      9804      9805      9806      9804      9805      9807      9805      9807      9808
      9805      9807      9809      9805      9807      9857      9806      9805      9807
      9807      9857      9858      9807      9857      9859      9807      9857      9860
      9808      9807      9809      9808      9807      9857      9809      9807      9857
      9810      9813      9814      9810      9813      9815      9810      9813      9816
      9811      9810      9812      9811      9810      9813      9812      9810      9813
      9813      9816      9817      9813      9816      9818      9813      9816      9819
      9814      9813      9815      9814      9813      9816      9815      9813      9816
      9816      9819      9820      9816      9819      9821      9816      9819      9822
      9817      9816      9818      9817      9816      9819      9818      9816      9819
      9819      9822      9823      9819      9822      9824      9819      9822      9825
      9820      9819      9821      9820      9819      9822      9821      9819      9822
      9822      9825      9826      9822      9825      9827      9822      9825      9828
      9823      9822      9824      9823      9822      9825      9824      9822      9825
      9825      9828      9829      9825      9828      9830      9826      9825      9827
      9826      9825      9828      9827      9825      9828      9828      9830      9831
      9828      9830      9832      9829      9828      9830      9830      9832      9833
      9830      9832      9834      9830      9832      9835      9831      9830      9832
      9832      9835      9836      9832      9835      9837      9832      9835      9838
      9833      9832      9834      9833      9832      9835      9834      9832      9835
      9835      9838      9839      9835      9838      9840      9835      9838      9841
      9836      9835      9837      9836      9835      9838      9837      9835      9838
      9838      9841      9842      9838      9841      9843      9838      9841      9844
      9839      9838      9840      9839      9838      9841      9840      9838      9841
      9841      9844      9845      9841      9844      9846      9841      9844      9847
      9842      9841      9843      9842      9841      9844      9843      9841      9844
      9844      9847      9848      9844      9847      9849      9844      9847      9850
      9845      9844      9846      9845      9844      9847      9846      9844      9847
      9847      9850      9851      9847      9850      9852      9847      9850      9853
      9848      9847      9849      9848      9847      9850      9849      9847      9850
      9850      9853      9854      9850      9853      9855      9850      9853      9856
      9851      9850      9852      9851      9850      9853      9852      9850      9853
      9854      9853      9855      9854      9853      9856      9855      9853      9856
      9857      9860      9861      9857      9860      9862      9857      9860      9863
      9858      9857      9859      9858      9857      9860      9859      9857      9860
      9860      9863      9864      9860      9863      9865      9860      9863      9866
      9861      9860      9862      9861      9860      9863      9862      9860      9863
      9863      9866      9867      9863      9866      9868      9863      9866      9869
      9864      9863      9865      9864      9863      9866      9865      9863      9866
      9866      9869      9870      9866      9869      9871      9866      9869      9872
      9867      9866      9868      9867      9866      9869      9868      9866      9869
      9869      9872      9873      9869      9872      9874      9869      9872      9875
      9870      9869      9871      9870      9869      9872      9871      9869      9872
      9872      9875      9876      9872      9875      9877      9872      9875      9878
      9873      9872      9874      9873      9872      9875      9874      9872      9875
      9875      9878      9879      9875      9878      9880      9875      9878      9881
      9876      9875      9877      9876      9875      9878      9877      9875      9878
      9878      9881      9882      9878      9881      9883      9878      9881      9884
      9879      9878      9880      9879      9878      9881      9880      9878      9881
      9881      9884      9885      9881      9884      9886      9881      9884      9887
      9882      9881      9883      9882      9881      9884      9883      9881      9884
      9884      9887      9888      9884      9887      9889      9884      9887      9890
      9885      9884      9886      9885      9884      9887      9886      9884      9887
      9887      9890      9891      9887      9890      9892      9887      9890      9893
      9888      9887      9889      9888      9887      9890      9889      9887      9890
      9890      9893      9894      9890      9893      9895      9890      9893      9896
      9891      9890      9892      9891      9890      9893      9892      9890      9893
      9893      9896      9897      9893      9896      9898      9893      9896      9899
      9894      9893      9895      9894      9893      9896      9895      9893      9896
      9897      9896      9898      9897      9896      9899      9898      9896      9899
      9900      9904      9905      9900      9904      9906      9900      9904      9907
      9901      9900      9902      9901      9900      9903      9901      9900      9904
      9902      9900      9903      9902      9900      9904      9903      9900      9904
      9904      9907      9908      9904      9907      9909      9904      9907      9914
      9905      9904      9906      9905      9904      9907      9906      9904      9907
      9907      9914      9910      9908      9907      9909      9908      9907      9914
      9909      9907      9914      9910      9913      9915      9911      9910      9912
      9911      9910      9913      9911      9910      9914      9912      9910      9913
      9912      9910      9914      9913      9910      9914      9913      9915      9916
      9913      9915      9917      9913      9915      9918      9915      9918      9919
      9915      9918      9920      9915      9918      9926      9916      9915      9917
      9916      9915      9918      9917      9915      9918      9918      9920      9921
      9918      9926      9927      9918      9926      9928      9918      9926      9929
      9919      9918      9920      9919      9918      9926      9920      9918      9926
      9920      9921      9922      9920      9921      9923      9921      9923      9924
      9921      9923      9925      9921      9923      9935      9922      9921      9923
      9923      9935      9936      9923      9935      9937      9923      9935      9938
      9924      9923      9925      9924      9923      9935      9925      9923      9935
      9926      9929      9930      9927      9926      9928      9927      9926      9929
      9928      9926      9929      9929      9930      9931      9929      9930      9932
      9930      9932      9933      9930      9932      9934      9930      9932      9982
      9931      9930      9932      9932      9982      9983      9932      9982      9984
      9932      9982      9985      9933      9932      9934      9933      9932      9982
      9934      9932      9982      9935      9938      9939      9935      9938      9940
      9935      9938      9941      9936      9935      9937      9936      9935      9938
      9937      9935      9938      9938      9941      9942      9938      9941      9943
      9938      9941      9944      9939      9938      9940      9939      9938      9941
      9940      9938      9941      9941      9944      9945      9941      9944      9946
      9941      9944      9947      9942      9941      9943      9942      9941      9944
      9943      9941      9944      9944      9947      9948      9944      9947      9949
      9944      9947      9950      9945      9944      9946      9945      9944      9947
      9946      9944      9947      9947      9950      9951      9947      9950      9952
      9947      9950      9953      9948      9947      9949      9948      9947      9950
      9949      9947      9950      9950      9953      9954      9950      9953      9955
      9951      9950      9952      9951      9950      9953      9952      9950      9953
      9953      9955      9956      9953      9955      9957      9954      9953      9955
      9955      9957      9958      9955      9957      9959      9955      9957      9960
      9956      9955      9957      9957      9960      9961      9957      9960      9962
      9957      9960      9963      9958      9957      9959      9958      9957      9960
      9959      9957      9960      9960      9963      9964      9960      9963      9965
      9960      9963      9966      9961      9960      9962      9961      9960      9963
      9962      9960      9963      9963      9966      9967      9963      9966      9968
      9963      9966      9969      9964      9963      9965      9964      9963      9966
      9965      9963      9966      9966      9969      9970      9966      9969      9971
      9966      9969      9972      9967      9966      9968      9967      9966      9969
      9968      9966      9969      9969      9972      9973      9969      9972      9974
      9969      9972      9975      9970      9969      9971      9970      9969      9972
      9971      9969      9972      9972      9975      9976      9972      9975      9977
      9972      9975      9978      9973      9972      9974      9973      9972      9975
      9974      9972      9975      9975      9978      9979      9975      9978      9980
      9975      9978      9981      9976      9975      9977      9976      9975      9978
      9977      9975      9978      9979      9978      9980      9979      9978      9981
      9980      9978      9981      9982      9985      9986      9982      9985      9987
      9982      9985      9988      9983      9982      9984      9983      9982      9985
      9984      9982      9985      9985      9988      9989      9985      9988      9990
      9985      9988      9991      9986      9985      9987      9986      9985      9988
      9987      9985      9988      9988      9991      9992      9988      9991      9993
      9988      9991      9994      9989      9988      9990      9989      9988      9991
      9990      9988      9991      9991      9994      9995      9991      9994      9996
      9991      9994      9997      9992      9991      9993      9992      9991      9994
      9993      9991      9994      9994      9997      9998      9994      9997      9999
      9994      9997     10000      9995      9994      9996      9995      9994      9997
      9996      9994      9997      9997     10000     10001      9997     10000     10002
      9997     10000     10003      9998      9997      9999      9998      9997     10000
      9999      9997     10000     10000     10003     10004     10000     10003     10005
     10000     10003     10006     10001     10000     10002     10001     10000     10003
     10002     10000     10003     10003     10006     10007     10003     10006     10008
     10003     10006     10009     10004     10003     10005     10004     10003     10006
     10005     10003     10006     10006     10009     10010     10006     10009     10011
     10006     10009     10012     10007     10006     10008     10007     10006     10009
     10008     10006     10009     10009     10012     10013     10009     10012     10014
     10009     10012     10015     10010     10009     10011     10010     10009     10012
     10011     10009     10012     10012     10015     10016     10012     10015     10017
     10012     10015     10018     10013     10012     10014     10013     10012     10015
     10014     10012     10015     10015     10018     10019     10015     10018     10020
     10015     10018     10021     10016     10015     10017     10016     10015     10018
     10017     10015     10018     10018     10021     10022     10018     10021     10023
     10018     10021     10024     10019     10018     10020     10019     10018     10021
     10020     10018     10021     10022     10021     10023     10022     10021     10024
     10023     10021     10024     10025     10029     10030     10025     10029     10031
     10025     10029     10032     10026     10025     10027     10026     10025     10028
     10026     10025     10029     10027     10025     10028     10027     10025     10029
     10028     10025     10029     10029     10032     10033     10029     10032     10034
     10029     10032     10039     10030     10029     10031     10030     10029     10032
     10031     10029     10032     10032     10039     10035     10033     10032     10034
     10033     10032     10039     10034     10032     10039     10035     10038     10040
     10036     10035     10037     10036     10035     10038     10036     10035     10039
     10037     10035     10038     10037     10035     10039     10038     10035     10039
     10038     10040     10041     10038     10040     10042     10038     10040     10043
     10040     10043     10044     10040     10043     10045     10040     10043     10051
     10041     10040     10042     10041     10040     10043     10042     10040     10043
     10043     10045     10046     10043     10051     10052     10043     10051     10053
     10043     10051     10054     10044     10043     10045     10044     10043     10051
     10045     10043     10051     10045     10046     10047     10045     10046     10048
     10046     10048     10049     10046     10048     10050     10046     10048     10060
     10047     10046     10048     10048     10060     10061     10048     10060     10062
     10048     10060     10063     10049     10048     10050     10049     10048     10060
     10050     10048     10060     10051     10054     10055     10052     10051     10053
     10052     10051     10054     10053     10051     10054     10054     10055     10056
     10054     10055     10057     10055     10057     10058     10055     10057     10059
     10055     10057     10104     10056     10055     10057     10057     10104     10105
     10057     10104     10106     10057     10104     10107     10058     10057     10059
     10058     10057     10104     10059     10057     10104     10060     10063     10064
     10060     10063     10065     10060     10063     10066     10061     10060     10062
     10061     10060     10063     10062     10060     10063     10063     10066     10067
     10063     10066     10068     10063     10066     10069     10064     10063     10065
     10064     10063     10066     10065     10063     10066     10066     10069     10070
     10066     10069     10071     10066     10069     10072     10067     10066     10068
     10067     10066     10069     10068     10066     10069     10069     10072     10073
     10069     10072     10074     10069     10072     10075     10070     10069     10071
     10070     10069     10072     10071     10069     10072     10072     10075     10076
     10072     10075     10077     10072     10075     10078     10073     10072     10074
     10073     10072     10075     10074     10072     10075     10075     10078     10079
     10075     10078     10080     10075     10078     10083     10076     10075     10077
     10076     10075     10078     10077     10075     10078     10078     10080     10081
     10078     10080     10082     10078     10080     10083     10078     10083     10080
     10078     10083     10084     10078     10083     10085     10079     10078     10080
     10079     10078     10083     10080     10078     10083     10080     10083     10084
     10080     10083     10085     10081     10080     10082     10081     10080     10083
     10082     10080     10083     10083     10085     10086     10083     10085     10087
     10083     10085     10088     10084     10083     10085     10085     10088     10089
     10085     10088     10090     10085     10088     10091     10086     10085     10087
     10086     10085     10088     10087     10085     10088     10088     10091     10092
     10088     10091     10093     10088     10091     10094     10089     10088     10090
     10089     10088     10091     10090     10088     10091     10091     10094     10095
     10091     10094     10096     10091     10094     10097     10092     10091     10093
     10092     10091     10094     10093     10091     10094     10094     10097     10098
     10094     10097     10099     10094     10097     10100     10095     10094     10096
     10095     10094     10097     10096     10094     10097     10097     10100     10101
     10097     10100     10102     10097     10100     10103     10098     10097     10099
     10098     10097     10100     10099     10097     10100     10101     10100     10102
     10101     10100     10103     10102     10100     10103     10104     10107     10108
     10104     10107     10109     10104     10107     10110     10105     10104     10106
     10105     10104     10107     10106     10104     10107     10107     10110     10111
     10107     10110     10112     10107     10110     10113     10108     10107     10109
     10108     10107     10110     10109     10107     10110     10110     10113     10114
     10110     10113     10115     10110     10113     10116     10111     10110     10112
     10111     10110     10113     10112     10110     10113     10113     10116     10117
     10113     10116     10118     10113     10116     10119     10114     10113     10115
     10114     10113     10116     10115     10113     10116     10116     10119     10120
     10116     10119     10121     10116     10119     10122     10117     10116     10118
     10117     10116     10119     10118     10116     10119     10119     10122     10123
     10119     10122     10124     10119     10122     10125     10120     10119     10121
     10120     10119     10122     10121     10119     10122     10122     10125     10126
     10122     10125     10127     10122     10125     10128     10123     10122     10124
     10123     10122     10125     10124     10122     10125     10125     10128     10129
     10125     10128     10130     10125     10128     10131     10126     10125     10127
     10126     10125     10128     10127     10125     10128     10128     10131     10132
     10128     10131     10133     10128     10131     10134     10129     10128     10130
     10129     10128     10131     10130     10128     10131     10131     10134     10135
     10131     10134     10136     10131     10134     10137     10132     10131     10133
     10132     10131     10134     10133     10131     10134     10134     10137     10138
     10134     10137     10139     10134     10137     10140     10135     10134     10136
     10135     10134     10137     10136     10134     10137     10137     10140     10141
     10137     10140     10142     10137     10140     10143     10138     10137     10139
     10138     10137     10140     10139     10137     10140     10140     10143     10144
     10140     10143     10145     10140     10143     10146     10141     10140     10142
     10141     10140     10143     10142     10140     10143     10144     10143     10145
     10144     10143     10146     10145     10143     10146     10147     10151     10152
     10147     10151     10153     10147     10151     10154     10148     10147     10149
     10148     10147     10150     10148     10147     10151     10149     10147     10150
     10149     10147     10151     10150     10147     10151     10151     10154     10155
     10151     10154     10156     10151     10154     10161     10152     10151     10153
     10152     10151     10154     10153     10151     10154     10154     10161     10157
     10155     10154     10156     10155     10154     10161     10156     10154     10161
     10157     10160     10162     10158     10157     10159     10158     10157     10160
     10158     10157     10161     10159     10157     10160     10159     10157     10161
     10160     10157     10161     10160     10162     10163     10160     10162     10164
     10160     10162     10165     10162     10165     10166     10162     10165     10167
     10162     10165     10173     10163     10162     10164     10163     10162     10165
     10164     10162     10165     10165     10167     10168     10165     10173     10174
     10165     10173     10175     10165     10173     10176     10166     10165     10167
     10166     10165     10173     10167     10165     10173     10167     10168     10169
     10167     10168     10170     10168     10170     10171     10168     10170     10172
     10168     10170     10182     10169     10168     10170     10170     10182     10183
     10170     10182     10184     10170     10182     10185     10171     10170     10172
     10171     10170     10182     10172     10170     10182     10173     10176     10177
     10174     10173     10175     10174     10173     10176     10175     10173     10176
     10176     10177     10178     10176     10177     10179     10177     10179     10180
     10177     10179     10181     10177     10179     10226     10178     10177     10179
     10179     10226     10227     10179     10226     10228     10179     10226     10229
     10180     10179     10181     10180     10179     10226     10181     10179     10226
     10182     10185     10186     10182     10185     10187     10182     10185     10188
     10183     10182     10184     10183     10182     10185     10184     10182     10185
     10185     10188     10189     10185     10188     10190     10185     10188     10191
     10186     10185     10187     10186     10185     10188     10187     10185     10188
     10188     10191     10192     10188     10191     10193     10188     10191     10194
     10189     10188     10190     10189     10188     10191     10190     10188     10191
     10191     10194     10195     10191     10194     10196     10191     10194     10197
     10192     10191     10193     10192     10191     10194     10193     10191     10194
     10194     10197     10198     10194     10197     10199     10194     10197     10200
     10195     10194     10196     10195     10194     10197     10196     10194     10197
     10197     10200     10201     10197     10200     10202     10197     10200     10205
     10198     10197     10199     10198     10197     10200     10199     10197     10200
     10200     10202     10203     10200     10202     10204     10200     10202     10205
     10200     10205     10202     10200     10205     10206     10200     10205     10207
     10201     10200     10202     10201     10200     10205     10202     10200     10205
     10202     10205     10206     10202     10205     10207     10203     10202     10204
     10203     10202     10205     10204     10202     10205     10205     10207     10208
     10205     10207     10209     10205     10207     10210     10206     10205     10207
     10207     10210     10211     10207     10210     10212     10207     10210     10213
     10208     10207     10209     10208     10207     10210     10209     10207     10210
     10210     10213     10214     10210     10213     10215     10210     10213     10216
     10211     10210     10212     10211     10210     10213     10212     10210     10213
     10213     10216     10217     10213     10216     10218     10213     10216     10219
     10214     10213     10215     10214     10213     10216     10215     10213     10216
     10216     10219     10220     10216     10219     10221     10216     10219     10222
     10217     10216     10218     10217     10216     10219     10218     10216     10219
     10219     10222     10223     10219     10222     10224     10219     10222     10225
     10220     10219     10221     10220     10219     10222     10221     10219     10222
     10223     10222     10224     10223     10222     10225     10224     10222     10225
     10226     10229     10230     10226     10229     10231     10226     10229     10232
     10227     10226     10228     10227     10226     10229     10228     10226     10229
     10229     10232     10233     10229     10232     10234     10229     10232     10235
     10230     10229     10231     10230     10229     10232     10231     10229     10232
     10232     10235     10236     10232     10235     10237     10232     10235     10238
     10233     10232     10234     10233     10232     10235     10234     10232     10235
     10235     10238     10239     10235     10238     10240     10235     10238     10241
     10236     10235     10237     10236     10235     10238     10237     10235     10238
     10238     10241     10242     10238     10241     10243     10238     10241     10244
     10239     10238     10240     10239     10238     10241     10240     10238     10241
     10241     10244     10245     10241     10244     10246     10241     10244     10247
     10242     10241     10243     10242     10241     10244     10243     10241     10244
     10244     10247     10248     10244     10247     10249     10244     10247     10250
     10245     10244     10246     10245     10244     10247     10246     10244     10247
     10247     10250     10251     10247     10250     10252     10247     10250     10253
     10248     10247     10249     10248     10247     10250     10249     10247     10250
     10250     10253     10254     10250     10253     10255     10250     10253     10256
     10251     10250     10252     10251     10250     10253     10252     10250     10253
     10253     10256     10257     10253     10256     10258     10253     10256     10259
     10254     10253     10255     10254     10253     10256     10255     10253     10256
     10256     10259     10260     10256     10259     10261     10256     10259     10262
     10257     10256     10258     10257     10256     10259     10258     10256     10259
     10259     10262     10263     10259     10262     10264     10259     10262     10265
     10260     10259     10261     10260     10259     10262     10261     10259     10262
     10262     10265     10266     10262     10265     10267     10262     10265     10268
     10263     10262     10264     10263     10262     10265     10264     10262     10265
     10266     10265     10267     10266     10265     10268     10267     10265     10268
     10269     10273     10274     10269     10273     10275     10269     10273     10276
     10270     10269     10271     10270     10269     10272     10270     10269     10273
     10271     10269     10272     10271     10269     10273     10272     10269     10273
     10273     10276     10277     10273     10276     10278     10273     10276     10283
     10274     10273     10275     10274     10273     10276     10275     10273     10276
     10276     10283     10279     10277     10276     10278     10277     10276     10283
     10278     10276     10283     10279     10282     10284     10280     10279     10281
     10280     10279     10282     10280     10279     10283     10281     10279     10282
     10281     10279     10283     10282     10279     10283     10282     10284     10285
     10282     10284     10286     10282     10284     10287     10284     10287     10288
     10284     10287     10289     10284     10287     10295     10285     10284     10286
     10285     10284     10287     10286     10284     10287     10287     10289     10290
     10287     10295     10296     10287     10295     10297     10287     10295     10298
     10288     10287     10289     10288     10287     10295     10289     10287     10295
     10289     10290     10291     10289     10290     10292     10290     10292     10293
     10290     10292     10294     10290     10292     10304     10291     10290     10292
     10292     10304     10305     10292     10304     10306     10292     10304     10307
     10293     10292     10294     10293     10292     10304     10294     10292     10304
     10295     10298     10299     10296     10295     10297     10296     10295     10298
     10297     10295     10298     10298     10299     10300     10298     10299     10301
     10299     10301     10302     10299     10301     10303     10299     10301     10345
     10300     10299     10301     10301     10345     10346     10301     10345     10347
     10301     10345     10348     10302     10301     10303     10302     10301     10345
     10303     10301     10345     10304     10307     10308     10304     10307     10309
     10304     10307     10310     10305     10304     10306     10305     10304     10307
     10306     10304     10307     10307     10310     10311     10307     10310     10312
     10307     10310     10313     10308     10307     10309     10308     10307     10310
     10309     10307     10310     10310     10313     10314     10310     10313     10315
     10310     10313     10316     10311     10310     10312     10311     10310     10313
     10312     10310     10313     10313     10316     10317     10313     10316     10318
     10313     10316     10319     10314     10313     10315     10314     10313     10316
     10315     10313     10316     10316     10319     10320     10316     10319     10321
     10316     10319     10322     10317     10316     10318     10317     10316     10319
     10318     10316     10319     10319     10322     10323     10319     10322     10324
     10320     10319     10321     10320     10319     10322     10321     10319     10322
     10322     10324     10325     10322     10324     10326     10323     10322     10324
     10324     10326     10327     10324     10326     10328     10324     10326     10329
     10325     10324     10326     10326     10329     10330     10326     10329     10331
     10326     10329     10332     10327     10326     10328     10327     10326     10329
     10328     10326     10329     10329     10332     10333     10329     10332     10334
     10329     10332     10335     10330     10329     10331     10330     10329     10332
     10331     10329     10332     10332     10335     10336     10332     10335     10337
     10332     10335     10338     10333     10332     10334     10333     10332     10335
     10334     10332     10335     10335     10338     10339     10335     10338     10340
     10335     10338     10341     10336     10335     10337     10336     10335     10338
     10337     10335     10338     10338     10341     10342     10338     10341     10343
     10338     10341     10344     10339     10338     10340     10339     10338     10341
     10340     10338     10341     10342     10341     10343     10342     10341     10344
     10343     10341     10344     10345     10348     10349     10345     10348     10350
     10345     10348     10351     10346     10345     10347     10346     10345     10348
     10347     10345     10348     10348     10351     10352     10348     10351     10353
     10348     10351     10354     10349     10348     10350     10349     10348     10351
     10350     10348     10351     10351     10354     10355     10351     10354     10356
     10351     10354     10357     10352     10351     10353     10352     10351     10354
     10353     10351     10354     10354     10357     10358     10354     10357     10359
     10354     10357     10360     10355     10354     10356     10355     10354     10357
     10356     10354     10357     10357     10360     10361     10357     10360     10362
     10357     10360     10363     10358     10357     10359     10358     10357     10360
     10359     10357     10360     10360     10363     10364     10360     10363     10365
     10361     10360     10362     10361     10360     10363     10362     10360     10363
     10363     10365     10366     10363     10365     10367     10364     10363     10365
     10365     10367     10368     10365     10367     10369     10365     10367     10370
     10366     10365     10367     10367     10370     10371     10367     10370     10372
     10367     10370     10373     10368     10367     10369     10368     10367     10370
     10369     10367     10370     10370     10373     10374     10370     10373     10375
     10370     10373     10376     10371     10370     10372     10371     10370     10373
     10372     10370     10373     10373     10376     10377     10373     10376     10378
     10373     10376     10379     10374     10373     10375     10374     10373     10376
     10375     10373     10376     10376     10379     10380     10376     10379     10381
     10376     10379     10382     10377     10376     10378     10377     10376     10379
     10378     10376     10379     10379     10382     10383     10379     10382     10384
     10379     10382     10385     10380     10379     10381     10380     10379     10382
     10381     10379     10382     10382     10385     10386     10382     10385     10387
     10382     10385     10388     10383     10382     10384     10383     10382     10385
     10384     10382     10385     10385     10388     10389     10385     10388     10390
     10385     10388     10391     10386     10385     10387     10386     10385     10388
     10387     10385     10388     10389     10388     10390     10389     10388     10391
     10390     10388     10391     10392     10396     10397     10392     10396     10398
     10392     10396     10399     10393     10392     10394     10393     10392     10395
     10393     10392     10396     10394     10392     10395     10394     10392     10396
     10395     10392     10396     10396     10399     10400     10396     10399     10401
     10396     10399     10406     10397     10396     10398     10397     10396     10399
     10398     10396     10399     10399     10406     10402     10400     10399     10401
     10400     10399     10406     10401     10399     10406     10402     10405     10407
     10403     10402     10404     10403     10402     10405     10403     10402     10406
     10404     10402     10405     10404     10402     10406     10405     10402     10406
     10405     10407     10408     10405     10407     10409     10405     10407     10410
     10407     10410     10411     10407     10410     10412     10407     10410     10418
     10408     10407     10409     10408     10407     10410     10409     10407     10410
     10410     10412     10413     10410     10418     10419     10410     10418     10420
     10410     10418     10421     10411     10410     10412     10411     10410     10418
     10412     10410     10418     10412     10413     10414     10412     10413     10415
     10413     10415     10416     10413     10415     10417     10413     10415     10427
     10414     10413     10415     10415     10427     10428     10415     10427     10429
     10415     10427     10430     10416     10415     10417     10416     10415     10427
     10417     10415     10427     10418     10421     10422     10419     10418     10420
     10419     10418     10421     10420     10418     10421     10421     10422     10423
     10421     10422     10424     10422     10424     10425     10422     10424     10426
     10422     10424     10471     10423     10422     10424     10424     10471     10472
     10424     10471     10473     10424     10471     10474     10425     10424     10426
     10425     10424     10471     10426     10424     10471     10427     10430     10431
     10427     10430     10432     10427     10430     10433     10428     10427     10429
     10428     10427     10430     10429     10427     10430     10430     10433     10434
     10430     10433     10435     10430     10433     10436     10431     10430     10432
     10431     10430     10433     10432     10430     10433     10433     10436     10437
     10433     10436     10438     10433     10436     10439     10434     10433     10435
     10434     10433     10436     10435     10433     10436     10436     10439     10440
     10436     10439     10441     10436     10439     10442     10437     10436     10438
     10437     10436     10439     10438     10436     10439     10439     10442     10443
     10439     10442     10444     10439     10442     10445     10440     10439     10441
     10440     10439     10442     10441     10439     10442     10442     10445     10446
     10442     10445     10447     10442     10445     10450     10443     10442     10444
     10443     10442     10445     10444     10442     10445     10445     10447     10448
     10445     10447     10449     10445     10447     10450     10445     10450     10447
     10445     10450     10451     10445     10450     10452     10446     10445     10447
     10446     10445     10450     10447     10445     10450     10447     10450     10451
     10447     10450     10452     10448     10447     10449     10448     10447     10450
     10449     10447     10450     10450     10452     10453     10450     10452     10454
     10450     10452     10455     10451     10450     10452     10452     10455     10456
     10452     10455     10457     10452     10455     10458     10453     10452     10454
     10453     10452     10455     10454     10452     10455     10455     10458     10459
     10455     10458     10460     10455     10458     10461     10456     10455     10457
     10456     10455     10458     10457     10455     10458     10458     10461     10462
     10458     10461     10463     10458     10461     10464     10459     10458     10460
     10459     10458     10461     10460     10458     10461     10461     10464     10465
     10461     10464     10466     10461     10464     10467     10462     10461     10463
     10462     10461     10464     10463     10461     10464     10464     10467     10468
     10464     10467     10469     10464     10467     10470     10465     10464     10466
     10465     10464     10467     10466     10464     10467     10468     10467     10469
     10468     10467     10470     10469     10467     10470     10471     10474     10475
     10471     10474     10476     10471     10474     10477     10472     10471     10473
     10472     10471     10474     10473     10471     10474     10474     10477     10478
     10474     10477     10479     10474     10477     10480     10475     10474     10476
     10475     10474     10477     10476     10474     10477     10477     10480     10481
     10477     10480     10482     10477     10480     10483     10478     10477     10479
     10478     10477     10480     10479     10477     10480     10480     10483     10484
     10480     10483     10485     10480     10483     10486     10481     10480     10482
     10481     10480     10483     10482     10480     10483     10483     10486     10487
     10483     10486     10488     10483     10486     10489     10484     10483     10485
     10484     10483     10486     10485     10483     10486     10486     10489     10490
     10486     10489     10491     10486     10489     10492     10487     10486     10488
     10487     10486     10489     10488     10486     10489     10489     10492     10493
     10489     10492     10494     10489     10492     10495     10490     10489     10491
     10490     10489     10492     10491     10489     10492     10492     10495     10496
     10492     10495     10497     10492     10495     10498     10493     10492     10494
     10493     10492     10495     10494     10492     10495     10495     10498     10499
     10495     10498     10500     10495     10498     10501     10496     10495     10497
     10496     10495     10498     10497     10495     10498     10498     10501     10502
     10498     10501     10503     10498     10501     10504     10499     10498     10500
     10499     10498     10501     10500     10498     10501     10501     10504     10505
     10501     10504     10506     10501     10504     10507     10502     10501     10503
     10502     10501     10504     10503     10501     10504     10504     10507     10508
     10504     10507     10509     10504     10507     10510     10505     10504     10506
     10505     10504     10507     10506     10504     10507     10507     10510     10511
     10507     10510     10512     10507     10510     10513     10508     10507     10509
     10508     10507     10510     10509     10507     10510     10511     10510     10512
     10511     10510     10513     10512     10510     10513     10514     10518     10519
     10514     10518     10520     10514     10518     10521     10515     10514     10516
     10515     10514     10517     10515     10514     10518     10516     10514     10517
     10516     10514     10518     10517     10514     10518     10518     10521     10522
     10518     10521     10523     10518     10521     10528     10519     10518     10520
     10519     10518     10521     10520     10518     10521     10521     10528     10524
     10522     10521     10523     10522     10521     10528     10523     10521     10528
     10524     10527     10529     10525     10524     10526     10525     10524     10527
     10525     10524     10528     10526     10524     10527     10526     10524     10528
     10527     10524     10528     10527     10529     10530     10527     10529     10531
     10527     10529     10532     10529     10532     10533     10529     10532     10534
     10529     10532     10540     10530     10529     10531     10530     10529     10532
     10531     10529     10532     10532     10534     10535     10532     10540     10541
     10532     10540     10542     10532     10540     10543     10533     10532     10534
     10533     10532     10540     10534     10532     10540     10534     10535     10536
     10534     10535     10537     10535     10537     10538     10535     10537     10539
     10535     10537     10549     10536     10535     10537     10537     10549     10550
     10537     10549     10551     10537     10549     10552     10538     10537     10539
     10538     10537     10549     10539     10537     10549     10540     10543     10544
     10541     10540     10542     10541     10540     10543     10542     10540     10543
     10543     10544     10545     10543     10544     10546     10544     10546     10547
     10544     10546     10548     10544     10546     10593     10545     10544     10546
     10546     10593     10594     10546     10593     10595     10546     10593     10596
     10547     10546     10548     10547     10546     10593     10548     10546     10593
     10549     10552     10553     10549     10552     10554     10549     10552     10555
     10550     10549     10551     10550     10549     10552     10551     10549     10552
     10552     10555     10556     10552     10555     10557     10552     10555     10558
     10553     10552     10554     10553     10552     10555     10554     10552     10555
     10555     10558     10559     10555     10558     10560     10555     10558     10561
     10556     10555     10557     10556     10555     10558     10557     10555     10558
     10558     10561     10562     10558     10561     10563     10558     10561     10564
     10559     10558     10560     10559     10558     10561     10560     10558     10561
     10561     10564     10565     10561     10564     10566     10561     10564     10567
     10562     10561     10563     10562     10561     10564     10563     10561     10564
     10564     10567     10568     10564     10567     10569     10564     10567     10572
     10565     10564     10566     10565     10564     10567     10566     10564     10567
     10567     10569     10570     10567     10569     10571     10567     10569     10572
     10567     10572     10569     10567     10572     10573     10567     10572     10574
     10568     10567     10569     10568     10567     10572     10569     10567     10572
     10569     10572     10573     10569     10572     10574     10570     10569     10571
     10570     10569     10572     10571     10569     10572     10572     10574     10575
     10572     10574     10576     10572     10574     10577     10573     10572     10574
     10574     10577     10578     10574     10577     10579     10574     10577     10580
     10575     10574     10576     10575     10574     10577     10576     10574     10577
     10577     10580     10581     10577     10580     10582     10577     10580     10583
     10578     10577     10579     10578     10577     10580     10579     10577     10580
     10580     10583     10584     10580     10583     10585     10580     10583     10586
     10581     10580     10582     10581     10580     10583     10582     10580     10583
     10583     10586     10587     10583     10586     10588     10583     10586     10589
     10584     10583     10585     10584     10583     10586     10585     10583     10586
     10586     10589     10590     10586     10589     10591     10586     10589     10592
     10587     10586     10588     10587     10586     10589     10588     10586     10589
     10590     10589     10591     10590     10589     10592     10591     10589     10592
     10593     10596     10597     10593     10596     10598     10593     10596     10599
     10594     10593     10595     10594     10593     10596     10595     10593     10596
     10596     10599     10600     10596     10599     10601     10596     10599     10602
     10597     10596     10598     10597     10596     10599     10598     10596     10599
     10599     10602     10603     10599     10602     10604     10599     10602     10605
     10600     10599     10601     10600     10599     10602     10601     10599     10602
     10602     10605     10606     10602     10605     10607     10602     10605     10608
     10603     10602     10604     10603     10602     10605     10604     10602     10605
     10605     10608     10609     10605     10608     10610     10605     10608     10611
     10606     10605     10607     10606     10605     10608     10607     10605     10608
     10608     10611     10612     10608     10611     10613     10608     10611     10614
     10609     10608     10610     10609     10608     10611     10610     10608     10611
     10611     10614     10615     10611     10614     10616     10611     10614     10617
     10612     10611     10613     10612     10611     10614     10613     10611     10614
     10614     10617     10618     10614     10617     10619     10614     10617     10620
     10615     10614     10616     10615     10614     10617     10616     10614     10617
     10617     10620     10621     10617     10620     10622     10617     10620     10623
     10618     10617     10619     10618     10617     10620     10619     10617     10620
     10620     10623     10624     10620     10623     10625     10620     10623     10626
     10621     10620     10622     10621     10620     10623     10622     10620     10623
     10623     10626     10627     10623     10626     10628     10623     10626     10629
     10624     10623     10625     10624     10623     10626     10625     10623     10626
     10626     10629     10630     10626     10629     10631     10626     10629     10632
     10627     10626     10628     10627     10626     10629     10628     10626     10629
     10630     10629     10631     10630     10629     10632     10631     10629     10632
     10633     10636     10637     10633     10638     10639     10633     10638     10640
     10633     10638     10642     10634     10633     10635     10634     10633     10636
     10634     10633     10638     10635     10633     10636     10635     10633     10638
     10636     10633     10638     10638     10640     10641     10638     10642     10643
     10638     10642     10644     10638     10642     10649     10639     10638     10640
     10639     10638     10642     10640     10638     10642     10642     10649     10645
     10643     10642     10644     10643     10642     10649     10644     10642     10649
     10645     10648     10650     10646     10645     10647     10646     10645     10648
     10646     10645     10649     10647     10645     10648     10647     10645     10649
     10648     10645     10649     10648     10650     10651     10648     10650     10652
     10648     10650     10653     10650     10653     10654     10650     10653     10655
     10650     10653     10661     10651     10650     10652     10651     10650     10653
     10652     10650     10653     10653     10655     10656     10653     10661     10662
     10653     10661     10663     10653     10661     10664     10654     10653     10655
     10654     10653     10661     10655     10653     10661     10655     10656     10657
     10655     10656     10658     10656     10658     10659     10656     10658     10660
     10656     10658     10670     10657     10656     10658     10658     10670     10671
     10658     10670     10672     10658     10670     10673     10659     10658     10660
     10659     10658     10670     10660     10658     10670     10661     10664     10665
     10662     10661     10663     10662     10661     10664     10663     10661     10664
     10664     10665     10666     10664     10665     10667     10665     10667     10668
     10665     10667     10669     10665     10667     10711     10666     10665     10667
     10667     10711     10712     10667     10711     10713     10667     10711     10714
     10668     10667     10669     10668     10667     10711     10669     10667     10711
     10670     10673     10674     10670     10673     10675     10670     10673     10676
     10671     10670     10672     10671     10670     10673     10672     10670     10673
     10673     10676     10677     10673     10676     10678     10673     10676     10679
     10674     10673     10675     10674     10673     10676     10675     10673     10676
     10676     10679     10680     10676     10679     10681     10676     10679     10682
     10677     10676     10678     10677     10676     10679     10678     10676     10679
     10679     10682     10683     10679     10682     10684     10679     10682     10685
     10680     10679     10681     10680     10679     10682     10681     10679     10682
     10682     10685     10686     10682     10685     10687     10682     10685     10688
     10683     10682     10684     10683     10682     10685     10684     10682     10685
     10685     10688     10689     10685     10688     10690     10686     10685     10687
     10686     10685     10688     10687     10685     10688     10688     10690     10691
     10688     10690     10692     10689     10688     10690     10690     10692     10693
     10690     10692     10694     10690     10692     10695     10691     10690     10692
     10692     10695     10696     10692     10695     10697     10692     10695     10698
     10693     10692     10694     10693     10692     10695     10694     10692     10695
     10695     10698     10699     10695     10698     10700     10695     10698     10701
     10696     10695     10697     10696     10695     10698     10697     10695     10698
     10698     10701     10702     10698     10701     10703     10698     10701     10704
     10699     10698     10700     10699     10698     10701     10700     10698     10701
     10701     10704     10705     10701     10704     10706     10701     10704     10707
     10702     10701     10703     10702     10701     10704     10703     10701     10704
     10704     10707     10708     10704     10707     10709     10704     10707     10710
     10705     10704     10706     10705     10704     10707     10706     10704     10707
     10708     10707     10709     10708     10707     10710     10709     10707     10710
     10711     10714     10715     10711     10714     10716     10711     10714     10717
     10712     10711     10713     10712     10711     10714     10713     10711     10714
     10714     10717     10718     10714     10717     10719     10714     10717     10720
     10715     10714     10716     10715     10714     10717     10716     10714     10717
     10717     10720     10721     10717     10720     10722     10717     10720     10723
     10718     10717     10719     10718     10717     10720     10719     10717     10720
     10720     10723     10724     10720     10723     10725     10720     10723     10726
     10721     10720     10722     10721     10720     10723     10722     10720     10723
     10723     10726     10727     10723     10726     10728     10723     10726     10729
     10724     10723     10725     10724     10723     10726     10725     10723     10726
     10726     10729     10730     10726     10729     10731     10726     10729     10732
     10727     10726     10728     10727     10726     10729     10728     10726     10729
     10729     10732     10733     10729     10732     10734     10729     10732     10735
     10730     10729     10731     10730     10729     10732     10731     10729     10732
     10732     10735     10736     10732     10735     10737     10732     10735     10738
     10733     10732     10734     10733     10732     10735     10734     10732     10735
     10735     10738     10739     10735     10738     10740     10735     10738     10741
     10736     10735     10737     10736     10735     10738     10737     10735     10738
     10738     10741     10742     10738     10741     10743     10738     10741     10744
     10739     10738     10740     10739     10738     10741     10740     10738     10741
     10741     10744     10745     10741     10744     10746     10741     10744     10747
     10742     10741     10743     10742     10741     10744     10743     10741     10744
     10744     10747     10748     10744     10747     10749     10744     10747     10750
     10745     10744     10746     10745     10744     10747     10746     10744     10747
     10747     10750     10751     10747     10750     10752     10747     10750     10753
     10748     10747     10749     10748     10747     10750     10749     10747     10750
     10751     10750     10752     10751     10750     10753     10752     10750     10753
     10754     10760     10757     10754     10765     10766     10754     10765     10767
     10754     10765     10769     10755     10754     10756     10755     10754     10760
     10755     10754     10765     10756     10754     10760     10756     10754     10765
     10757     10761     10762     10758     10757     10759     10758     10757     10760
     10758     10757     10761     10759     10757     10760     10759     10757     10761
     10760     10754     10765     10760     10757     10761     10761     10762     10763
     10761     10762     10764     10761     10762     10797     10762     10797     10798
     10762     10797     10799     10762     10797     10805     10763     10762     10764
     10763     10762     10797     10764     10762     10797     10765     10767     10768
     10765     10769     10770     10765     10769     10771     10765     10769     10775
     10766     10765     10767     10766     10765     10769     10767     10765     10769
     10769     10775     10772     10770     10769     10771     10770     10769     10775
     10771     10769     10775     10772     10776     10777     10773     10772     10774
     10773     10772     10775     10773     10772     10776     10774     10772     10775
     10774     10772     10776     10775     10772     10776     10776     10777     10778
     10776     10777     10779     10776     10777     10780     10777     10780     10781
     10777     10780     10782     10777     10780     10788     10778     10777     10779
     10778     10777     10780     10779     10777     10780     10780     10782     10783
     10780     10788     10789     10780     10788     10790     10780     10788     10791
     10781     10780     10782     10781     10780     10788     10782     10780     10788
     10782     10783     10784     10782     10783     10785     10783     10785     10786
     10783     10785     10787     10783     10785     10814     10784     10783     10785
     10785     10814     10815     10785     10814     10816     10785     10814     10817
     10786     10785     10787     10786     10785     10814     10787     10785     10814
     10788     10791     10792     10789     10788     10790     10789     10788     10791
     10790     10788     10791     10791     10792     10793     10791     10792     10794
     10792     10794     10795     10792     10794     10796     10792     10794     10861
     10793     10792     10794     10794     10861     10862     10794     10861     10863
     10794     10861     10864     10795     10794     10796     10795     10794     10861
     10796     10794     10861     10797     10799     10800     10797     10805     10806
     10797     10805     10807     10797     10805     10808     10798     10797     10799
     10798     10797     10805     10799     10797     10805     10799     10800     10801
     10799     10800     10802     10800     10802     10803     10800     10802     10804
     10800     10802     10904     10801     10800     10802     10802     10904     10905
     10802     10904     10906     10802     10904     10907     10803     10802     10804
     10803     10802     10904     10804     10802     10904     10805     10808     10809
     10806     10805     10807     10806     10805     10808     10807     10805     10808
     10808     10809     10810     10808     10809     10811     10809     10811     10812
     10809     10811     10813     10809     10811     10951     10810     10809     10811
     10811     10951     10952     10811     10951     10953     10811     10951     10954
     10812     10811     10813     10812     10811     10951     10813     10811     10951
     10814     10817     10818     10814     10817     10819     10814     10817     10820
     10815     10814     10816     10815     10814     10817     10816     10814     10817
     10817     10820     10821     10817     10820     10822     10817     10820     10823
     10818     10817     10819     10818     10817     10820     10819     10817     10820
     10820     10823     10824     10820     10823     10825     10820     10823     10826
     10821     10820     10822     10821     10820     10823     10822     10820     10823
     10823     10826     10827     10823     10826     10828     10823     10826     10829
     10824     10823     10825     10824     10823     10826     10825     10823     10826
     10826     10829     10830     10826     10829     10831     10826     10829     10832
     10827     10826     10828     10827     10826     10829     10828     10826     10829
     10829     10832     10833     10829     10832     10834     10829     10832     10835
     10830     10829     10831     10830     10829     10832     10831     10829     10832
     10832     10835     10836     10832     10835     10837     10832     10835     10838
     10833     10832     10834     10833     10832     10835     10834     10832     10835
     10835     10838     10839     10835     10838     10840     10836     10835     10837
     10836     10835     10838     10837     10835     10838     10838     10840     10841
     10838     10840     10842     10839     10838     10840     10840     10842     10843
     10840     10842     10844     10840     10842     10845     10841     10840     10842
     10842     10845     10846     10842     10845     10847     10842     10845     10848
     10843     10842     10844     10843     10842     10845     10844     10842     10845
     10845     10848     10849     10845     10848     10850     10845     10848     10851
     10846     10845     10847     10846     10845     10848     10847     10845     10848
     10848     10851     10852     10848     10851     10853     10848     10851     10854
     10849     10848     10850     10849     10848     10851     10850     10848     10851
     10851     10854     10855     10851     10854     10856     10851     10854     10857
     10852     10851     10853     10852     10851     10854     10853     10851     10854
     10854     10857     10858     10854     10857     10859     10854     10857     10860
     10855     10854     10856     10855     10854     10857     10856     10854     10857
     10858     10857     10859     10858     10857     10860     10859     10857     10860
     10861     10864     10865     10861     10864     10866     10861     10864     10867
     10862     10861     10863     10862     10861     10864     10863     10861     10864
     10864     10867     10868     10864     10867     10869     10864     10867     10870
     10865     10864     10866     10865     10864     10867     10866     10864     10867
     10867     10870     10871     10867     10870     10872     10867     10870     10873
     10868     10867     10869     10868     10867     10870     10869     10867     10870
     10870     10873     10874     10870     10873     10875     10870     10873     10876
     10871     10870     10872     10871     10870     10873     10872     10870     10873
     10873     10876     10877     10873     10876     10878     10873     10876     10879
     10874     10873     10875     10874     10873     10876     10875     10873     10876
     10876     10879     10880     10876     10879     10881     10876     10879     10882
     10877     10876     10878     10877     10876     10879     10878     10876     10879
     10879     10882     10883     10879     10882     10884     10879     10882     10885
     10880     10879     10881     10880     10879     10882     10881     10879     10882
     10882     10885     10886     10882     10885     10887     10882     10885     10888
     10883     10882     10884     10883     10882     10885     10884     10882     10885
     10885     10888     10889     10885     10888     10890     10885     10888     10891
     10886     10885     10887     10886     10885     10888     10887     10885     10888
     10888     10891     10892     10888     10891     10893     10888     10891     10894
     10889     10888     10890     10889     10888     10891     10890     10888     10891
     10891     10894     10895     10891     10894     10896     10891     10894     10897
     10892     10891     10893     10892     10891     10894     10893     10891     10894
     10894     10897     10898     10894     10897     10899     10894     10897     10900
     10895     10894     10896     10895     10894     10897     10896     10894     10897
     10897     10900     10901     10897     10900     10902     10897     10900     10903
     10898     10897     10899     10898     10897     10900     10899     10897     10900
     10901     10900     10902     10901     10900     10903     10902     10900     10903
     10904     10907     10908     10904     10907     10909     10904     10907     10910
     10905     10904     10906     10905     10904     10907     10906     10904     10907
     10907     10910     10911     10907     10910     10912     10907     10910     10913
     10908     10907     10909     10908     10907     10910     10909     10907     10910
     10910     10913     10914     10910     10913     10915     10910     10913     10916
     10911     10910     10912     10911     10910     10913     10912     10910     10913
     10913     10916     10917     10913     10916     10918     10913     10916     10919
     10914     10913     10915     10914     10913     10916     10915     10913     10916
     10916     10919     10920     10916     10919     10921     10916     10919     10922
     10917     10916     10918     10917     10916     10919     10918     10916     10919
     10919     10922     10923     10919     10922     10924     10919     10922     10925
     10920     10919     10921     10920     10919     10922     10921     10919     10922
     10922     10925     10926     10922     10925     10927     10922     10925     10928
     10923     10922     10924     10923     10922     10925     10924     10922     10925
     10925     10928     10929     10925     10928     10930     10926     10925     10927
     10926     10925     10928     10927     10925     10928     10928     10930     10931
     10928     10930     10932     10929     10928     10930     10930     10932     10933
     10930     10932     10934     10930     10932     10935     10931     10930     10932
     10932     10935     10936     10932     10935     10937     10932     10935     10938
     10933     10932     10934     10933     10932     10935     10934     10932     10935
     10935     10938     10939     10935     10938     10940     10935     10938     10941
     10936     10935     10937     10936     10935     10938     10937     10935     10938
     10938     10941     10942     10938     10941     10943     10938     10941     10944
     10939     10938     10940     10939     10938     10941     10940     10938     10941
     10941     10944     10945     10941     10944     10946     10941     10944     10947
     10942     10941     10943     10942     10941     10944     10943     10941     10944
     10944     10947     10948     10944     10947     10949     10944     10947     10950
     10945     10944     10946     10945     10944     10947     10946     10944     10947
     10948     10947     10949     10948     10947     10950     10949     10947     10950
     10951     10954     10955     10951     10954     10956     10951     10954     10957
     10952     10951     10953     10952     10951     10954     10953     10951     10954
     10954     10957     10958     10954     10957     10959     10954     10957     10960
     10955     10954     10956     10955     10954     10957     10956     10954     10957
     10957     10960     10961     10957     10960     10962     10957     10960     10963
     10958     10957     10959     10958     10957     10960     10959     10957     10960
     10960     10963     10964     10960     10963     10965     10960     10963     10966
     10961     10960     10962     10961     10960     10963     10962     10960     10963
     10963     10966     10967     10963     10966     10968     10963     10966     10969
     10964     10963     10965     10964     10963     10966     10965     10963     10966
     10966     10969     10970     10966     10969     10971     10966     10969     10972
     10967     10966     10968     10967     10966     10969     10968     10966     10969
     10969     10972     10973     10969     10972     10974     10969     10972     10975
     10970     10969     10971     10970     10969     10972     10971     10969     10972
     10972     10975     10976     10972     10975     10977     10972     10975     10978
     10973     10972     10974     10973     10972     10975     10974     10972     10975
     10975     10978     10979     10975     10978     10980     10975     10978     10981
     10976     10975     10977     10976     10975     10978     10977     10975     10978
     10978     10981     10982     10978     10981     10983     10978     10981     10984
     10979     10978     10980     10979     10978     10981     10980     10978     10981
     10981     10984     10985     10981     10984     10986     10981     10984     10987
     10982     10981     10983     10982     10981     10984     10983     10981     10984
     10984     10987     10988     10984     10987     10989     10984     10987     10990
     10985     10984     10986     10985     10984     10987     10986     10984     10987
     10987     10990     10991     10987     10990     10992     10987     10990     10993
     10988     10987     10989     10988     10987     10990     10989     10987     10990
     10991     10990     10992     10991     10990     10993     10992     10990     10993
     10994     10998     10999     10994     10998     11000     10994     10998     11001
     10995     10994     10996     10995     10994     10997     10995     10994     10998
     10996     10994     10997     10996     10994     10998     10997     10994     10998
     10998     11001     11002     10998     11001     11003     10998     11001     11008
     10999     10998     11000     10999     10998     11001     11000     10998     11001
     11001     11008     11004     11002     11001     11003     11002     11001     11008
     11003     11001     11008     11004     11007     11009     11005     11004     11006
     11005     11004     11007     11005     11004     11008     11006     11004     11007
     11006     11004     11008     11007     11004     11008     11007     11009     11010
     11007     11009     11011     11007     11009     11012     11009     11012     11013
     11009     11012     11014     11009     11012     11020     11010     11009     11011
     11010     11009     11012     11011     11009     11012     11012     11014     11015
     11012     11020     11021     11012     11020     11022     11012     11020     11023
     11013     11012     11014     11013     11012     11020     11014     11012     11020
     11014     11015     11016     11014     11015     11017     11015     11017     11018
     11015     11017     11019     11015     11017     11029     11016     11015     11017
     11017     11029     11030     11017     11029     11031     11017     11029     11032
     11018     11017     11019     11018     11017     11029     11019     11017     11029
     11020     11023     11024     11021     11020     11022     11021     11020     11023
     11022     11020     11023     11023     11024     11025     11023     11024     11026
     11024     11026     11027     11024     11026     11028     11024     11026     11073
     11025     11024     11026     11026     11073     11074     11026     11073     11075
     11026     11073     11076     11027     11026     11028     11027     11026     11073
     11028     11026     11073     11029     11032     11033     11029     11032     11034
     11029     11032     11035     11030     11029     11031     11030     11029     11032
     11031     11029     11032     11032     11035     11036     11032     11035     11037
     11032     11035     11038     11033     11032     11034     11033     11032     11035
     11034     11032     11035     11035     11038     11039     11035     11038     11040
     11035     11038     11041     11036     11035     11037     11036     11035     11038
     11037     11035     11038     11038     11041     11042     11038     11041     11043
     11038     11041     11044     11039     11038     11040     11039     11038     11041
     11040     11038     11041     11041     11044     11045     11041     11044     11046
     11041     11044     11047     11042     11041     11043     11042     11041     11044
     11043     11041     11044     11044     11047     11048     11044     11047     11049
     11044     11047     11052     11045     11044     11046     11045     11044     11047
     11046     11044     11047     11047     11049     11050     11047     11049     11051
     11047     11049     11052     11047     11052     11049     11047     11052     11053
     11047     11052     11054     11048     11047     11049     11048     11047     11052
     11049     11047     11052     11049     11052     11053     11049     11052     11054
     11050     11049     11051     11050     11049     11052     11051     11049     11052
     11052     11054     11055     11052     11054     11056     11052     11054     11057
     11053     11052     11054     11054     11057     11058     11054     11057     11059
     11054     11057     11060     11055     11054     11056     11055     11054     11057
     11056     11054     11057     11057     11060     11061     11057     11060     11062
     11057     11060     11063     11058     11057     11059     11058     11057     11060
     11059     11057     11060     11060     11063     11064     11060     11063     11065
     11060     11063     11066     11061     11060     11062     11061     11060     11063
     11062     11060     11063     11063     11066     11067     11063     11066     11068
     11063     11066     11069     11064     11063     11065     11064     11063     11066
     11065     11063     11066     11066     11069     11070     11066     11069     11071
     11066     11069     11072     11067     11066     11068     11067     11066     11069
     11068     11066     11069     11070     11069     11071     11070     11069     11072
     11071     11069     11072     11073     11076     11077     11073     11076     11078
     11073     11076     11079     11074     11073     11075     11074     11073     11076
     11075     11073     11076     11076     11079     11080     11076     11079     11081
     11076     11079     11082     11077     11076     11078     11077     11076     11079
     11078     11076     11079     11079     11082     11083     11079     11082     11084
     11079     11082     11085     11080     11079     11081     11080     11079     11082
     11081     11079     11082     11082     11085     11086     11082     11085     11087
     11082     11085     11088     11083     11082     11084     11083     11082     11085
     11084     11082     11085     11085     11088     11089     11085     11088     11090
     11085     11088     11091     11086     11085     11087     11086     11085     11088
     11087     11085     11088     11088     11091     11092     11088     11091     11093
     11088     11091     11094     11089     11088     11090     11089     11088     11091
     11090     11088     11091     11091     11094     11095     11091     11094     11096
     11091     11094     11097     11092     11091     11093     11092     11091     11094
     11093     11091     11094     11094     11097     11098     11094     11097     11099
     11094     11097     11100     11095     11094     11096     11095     11094     11097
     11096     11094     11097     11097     11100     11101     11097     11100     11102
     11097     11100     11103     11098     11097     11099     11098     11097     11100
     11099     11097     11100     11100     11103     11104     11100     11103     11105
     11100     11103     11106     11101     11100     11102     11101     11100     11103
     11102     11100     11103     11103     11106     11107     11103     11106     11108
     11103     11106     11109     11104     11103     11105     11104     11103     11106
     11105     11103     11106     11106     11109     11110     11106     11109     11111
     11106     11109     11112     11107     11106     11108     11107     11106     11109
     11108     11106     11109     11110     11109     11111     11110     11109     11112
     11111     11109     11112     11113     11117     11118     11113     11117     11119
     11113     11117     11120     11114     11113     11115     11114     11113     11116
     11114     11113     11117     11115     11113     11116     11115     11113     11117
     11116     11113     11117     11117     11120     11121     11117     11120     11122
     11117     11120     11127     11118     11117     11119     11118     11117     11120
     11119     11117     11120     11120     11127     11123     11121     11120     11122
     11121     11120     11127     11122     11120     11127     11123     11126     11128
     11124     11123     11125     11124     11123     11126     11124     11123     11127
     11125     11123     11126     11125     11123     11127     11126     11123     11127
     11126     11128     11129     11126     11128     11130     11126     11128     11131
     11128     11131     11132     11128     11131     11133     11128     11131     11139
     11129     11128     11130     11129     11128     11131     11130     11128     11131
     11131     11133     11134     11131     11139     11140     11131     11139     11141
     11131     11139     11142     11132     11131     11133     11132     11131     11139
     11133     11131     11139     11133     11134     11135     11133     11134     11136
     11134     11136     11137     11134     11136     11138     11134     11136     11148
     11135     11134     11136     11136     11148     11149     11136     11148     11150
     11136     11148     11151     11137     11136     11138     11137     11136     11148
     11138     11136     11148     11139     11142     11143     11140     11139     11141
     11140     11139     11142     11141     11139     11142     11142     11143     11144
     11142     11143     11145     11143     11145     11146     11143     11145     11147
     11143     11145     11192     11144     11143     11145     11145     11192     11193
     11145     11192     11194     11145     11192     11195     11146     11145     11147
     11146     11145     11192     11147     11145     11192     11148     11151     11152
     11148     11151     11153     11148     11151     11154     11149     11148     11150
     11149     11148     11151     11150     11148     11151     11151     11154     11155
     11151     11154     11156     11151     11154     11157     11152     11151     11153
     11152     11151     11154     11153     11151     11154     11154     11157     11158
     11154     11157     11159     11154     11157     11160     11155     11154     11156
     11155     11154     11157     11156     11154     11157     11157     11160     11161
     11157     11160     11162     11157     11160     11163     11158     11157     11159
     11158     11157     11160     11159     11157     11160     11160     11163     11164
     11160     11163     11165     11160     11163     11166     11161     11160     11162
     11161     11160     11163     11162     11160     11163     11163     11166     11167
     11163     11166     11168     11163     11166     11171     11164     11163     11165
     11164     11163     11166     11165     11163     11166     11166     11168     11169
     11166     11168     11170     11166     11168     11171     11166     11171     11168
     11166     11171     11172     11166     11171     11173     11167     11166     11168
     11167     11166     11171     11168     11166     11171     11168     11171     11172
     11168     11171     11173     11169     11168     11170     11169     11168     11171
     11170     11168     11171     11171     11173     11174     11171     11173     11175
     11171     11173     11176     11172     11171     11173     11173     11176     11177
     11173     11176     11178     11173     11176     11179     11174     11173     11175
     11174     11173     11176     11175     11173     11176     11176     11179     11180
     11176     11179     11181     11176     11179     11182     11177     11176     11178
     11177     11176     11179     11178     11176     11179     11179     11182     11183
     11179     11182     11184     11179     11182     11185     11180     11179     11181
     11180     11179     11182     11181     11179     11182     11182     11185     11186
     11182     11185     11187     11182     11185     11188     11183     11182     11184
     11183     11182     11185     11184     11182     11185     11185     11188     11189
     11185     11188     11190     11185     11188     11191     11186     11185     11187
     11186     11185     11188     11187     11185     11188     11189     11188     11190
     11189     11188     11191     11190     11188     11191     11192     11195     11196
     11192     11195     11197     11192     11195     11198     11193     11192     11194
     11193     11192     11195     11194     11192     11195     11195     11198     11199
     11195     11198     11200     11195     11198     11201     11196     11195     11197
     11196     11195     11198     11197     11195     11198     11198     11201     11202
     11198     11201     11203     11198     11201     11204     11199     11198     11200
     11199     11198     11201     11200     11198     11201     11201     11204     11205
     11201     11204     11206     11201     11204     11207     11202     11201     11203
     11202     11201     11204     11203     11201     11204     11204     11207     11208
     11204     11207     11209     11204     11207     11210     11205     11204     11206
     11205     11204     11207     11206     11204     11207     11207     11210     11211
     11207     11210     11212     11207     11210     11213     11208     11207     11209
     11208     11207     11210     11209     11207     11210     11210     11213     11214
     11210     11213     11215     11210     11213     11216     11211     11210     11212
     11211     11210     11213     11212     11210     11213     11213     11216     11217
     11213     11216     11218     11213     11216     11219     11214     11213     11215
     11214     11213     11216     11215     11213     11216     11216     11219     11220
     11216     11219     11221     11216     11219     11222     11217     11216     11218
     11217     11216     11219     11218     11216     11219     11219     11222     11223
     11219     11222     11224     11219     11222     11225     11220     11219     11221
     11220     11219     11222     11221     11219     11222     11222     11225     11226
     11222     11225     11227     11222     11225     11228     11223     11222     11224
     11223     11222     11225     11224     11222     11225     11225     11228     11229
     11225     11228     11230     11225     11228     11231     11226     11225     11227
     11226     11225     11228     11227     11225     11228     11228     11231     11232
     11228     11231     11233     11228     11231     11234     11229     11228     11230
     11229     11228     11231     11230     11228     11231     11232     11231     11233
     11232     11231     11234     11233     11231     11234     11235     11239     11240
     11235     11239     11241     11235     11239     11242     11236     11235     11237
     11236     11235     11238     11236     11235     11239     11237     11235     11238
     11237     11235     11239     11238     11235     11239     11239     11242     11243
     11239     11242     11244     11239     11242     11249     11240     11239     11241
     11240     11239     11242     11241     11239     11242     11242     11249     11245
     11243     11242     11244     11243     11242     11249     11244     11242     11249
     11245     11248     11250     11246     11245     11247     11246     11245     11248
     11246     11245     11249     11247     11245     11248     11247     11245     11249
     11248     11245     11249     11248     11250     11251     11248     11250     11252
     11248     11250     11253     11250     11253     11254     11250     11253     11255
     11250     11253     11261     11251     11250     11252     11251     11250     11253
     11252     11250     11253     11253     11255     11256     11253     11261     11262
     11253     11261     11263     11253     11261     11264     11254     11253     11255
     11254     11253     11261     11255     11253     11261     11255     11256     11257
     11255     11256     11258     11256     11258     11259     11256     11258     11260
     11256     11258     11270     11257     11256     11258     11258     11270     11271
     11258     11270     11272     11258     11270     11273     11259     11258     11260
     11259     11258     11270     11260     11258     11270     11261     11264     11265
     11262     11261     11263     11262     11261     11264     11263     11261     11264
     11264     11265     11266     11264     11265     11267     11265     11267     11268
     11265     11267     11269     11265     11267     11314     11266     11265     11267
     11267     11314     11315     11267     11314     11316     11267     11314     11317
     11268     11267     11269     11268     11267     11314     11269     11267     11314
     11270     11273     11274     11270     11273     11275     11270     11273     11276
     11271     11270     11272     11271     11270     11273     11272     11270     11273
     11273     11276     11277     11273     11276     11278     11273     11276     11279
     11274     11273     11275     11274     11273     11276     11275     11273     11276
     11276     11279     11280     11276     11279     11281     11276     11279     11282
     11277     11276     11278     11277     11276     11279     11278     11276     11279
     11279     11282     11283     11279     11282     11284     11279     11282     11285
     11280     11279     11281     11280     11279     11282     11281     11279     11282
     11282     11285     11286     11282     11285     11287     11282     11285     11288
     11283     11282     11284     11283     11282     11285     11284     11282     11285
     11285     11288     11289     11285     11288     11290     11285     11288     11293
     11286     11285     11287     11286     11285     11288     11287     11285     11288
     11288     11290     11291     11288     11290     11292     11288     11290     11293
     11288     11293     11290     11288     11293     11294     11288     11293     11295
     11289     11288     11290     11289     11288     11293     11290     11288     11293
     11290     11293     11294     11290     11293     11295     11291     11290     11292
     11291     11290     11293     11292     11290     11293     11293     11295     11296
     11293     11295     11297     11293     11295     11298     11294     11293     11295
     11295     11298     11299     11295     11298     11300     11295     11298     11301
     11296     11295     11297     11296     11295     11298     11297     11295     11298
     11298     11301     11302     11298     11301     11303     11298     11301     11304
     11299     11298     11300     11299     11298     11301     11300     11298     11301
     11301     11304     11305     11301     11304     11306     11301     11304     11307
     11302     11301     11303     11302     11301     11304     11303     11301     11304
     11304     11307     11308     11304     11307     11309     11304     11307     11310
     11305     11304     11306     11305     11304     11307     11306     11304     11307
     11307     11310     11311     11307     11310     11312     11307     11310     11313
     11308     11307     11309     11308     11307     11310     11309     11307     11310
     11311     11310     11312     11311     11310     11313     11312     11310     11313
     11314     11317     11318     11314     11317     11319     11314     11317     11320
     11315     11314     11316     11315     11314     11317     11316     11314     11317
     11317     11320     11321     11317     11320     11322     11317     11320     11323
     11318     11317     11319     11318     11317     11320     11319     11317     11320
     11320     11323     11324     11320     11323     11325     11320     11323     11326
     11321     11320     11322     11321     11320     11323     11322     11320     11323
     11323     11326     11327     11323     11326     11328     11323     11326     11329
     11324     11323     11325     11324     11323     11326     11325     11323     11326
     11326     11329     11330     11326     11329     11331     11326     11329     11332
     11327     11326     11328     11327     11326     11329     11328     11326     11329
     11329     11332     11333     11329     11332     11334     11329     11332     11335
     11330     11329     11331     11330     11329     11332     11331     11329     11332
     11332     11335     11336     11332     11335     11337     11332     11335     11338
     11333     11332     11334     11333     11332     11335     11334     11332     11335
     11335     11338     11339     11335     11338     11340     11335     11338     11341
     11336     11335     11337     11336     11335     11338     11337     11335     11338
     11338     11341     11342     11338     11341     11343     11338     11341     11344
     11339     11338     11340     11339     11338     11341     11340     11338     11341
     11341     11344     11345     11341     11344     11346     11341     11344     11347
     11342     11341     11343     11342     11341     11344     11343     11341     11344
     11344     11347     11348     11344     11347     11349     11344     11347     11350
     11345     11344     11346     11345     11344     11347     11346     11344     11347
     11347     11350     11351     11347     11350     11352     11347     11350     11353
     11348     11347     11349     11348     11347     11350     11349     11347     11350
     11351     11350     11352     11351     11350     11353     11352     11350     11353
     11354     11357     11358     11354     11359     11360     11354     11359     11361
     11354     11359     11363     11355     11354     11356     11355     11354     11357
     11355     11354     11359     11356     11354     11357     11356     11354     11359
     11357     11354     11359     11359     11361     11362     11359     11363     11364
     11359     11363     11365     11359     11363     11370     11360     11359     11361
     11360     11359     11363     11361     11359     11363     11363     11370     11366
     11364     11363     11365     11364     11363     11370     11365     11363     11370
     11366     11369     11371     11367     11366     11368     11367     11366     11369
     11367     11366     11370     11368     11366     11369     11368     11366     11370
     11369     11366     11370     11369     11371     11372     11369     11371     11373
     11369     11371     11374     11371     11374     11375     11371     11374     11376
     11371     11374     11382     11372     11371     11373     11372     11371     11374
     11373     11371     11374     11374     11376     11377     11374     11382     11383
     11374     11382     11384     11374     11382     11385     11375     11374     11376
     11375     11374     11382     11376     11374     11382     11376     11377     11378
     11376     11377     11379     11377     11379     11380     11377     11379     11381
     11377     11379     11391     11378     11377     11379     11379     11391     11392
     11379     11391     11393     11379     11391     11394     11380     11379     11381
     11380     11379     11391     11381     11379     11391     11382     11385     11386
     11383     11382     11384     11383     11382     11385     11384     11382     11385
     11385     11386     11387     11385     11386     11388     11386     11388     11389
     11386     11388     11390     11386     11388     11435     11387     11386     11388
     11388     11435     11436     11388     11435     11437     11388     11435     11438
     11389     11388     11390     11389     11388     11435     11390     11388     11435
     11391     11394     11395     11391     11394     11396     11391     11394     11397
     11392     11391     11393     11392     11391     11394     11393     11391     11394
     11394     11397     11398     11394     11397     11399     11394     11397     11400
     11395     11394     11396     11395     11394     11397     11396     11394     11397
     11397     11400     11401     11397     11400     11402     11397     11400     11403
     11398     11397     11399     11398     11397     11400     11399     11397     11400
     11400     11403     11404     11400     11403     11405     11400     11403     11406
     11401     11400     11402     11401     11400     11403     11402     11400     11403
     11403     11406     11407     11403     11406     11408     11403     11406     11409
     11404     11403     11405     11404     11403     11406     11405     11403     11406
     11406     11409     11410     11406     11409     11411     11406     11409     11414
     11407     11406     11408     11407     11406     11409     11408     11406     11409
     11409     11411     11412     11409     11411     11413     11409     11411     11414
     11409     11414     11411     11409     11414     11415     11409     11414     11416
     11410     11409     11411     11410     11409     11414     11411     11409     11414
     11411     11414     11415     11411     11414     11416     11412     11411     11413
     11412     11411     11414     11413     11411     11414     11414     11416     11417
     11414     11416     11418     11414     11416     11419     11415     11414     11416
     11416     11419     11420     11416     11419     11421     11416     11419     11422
     11417     11416     11418     11417     11416     11419     11418     11416     11419
     11419     11422     11423     11419     11422     11424     11419     11422     11425
     11420     11419     11421     11420     11419     11422     11421     11419     11422
     11422     11425     11426     11422     11425     11427     11422     11425     11428
     11423     11422     11424     11423     11422     11425     11424     11422     11425
     11425     11428     11429     11425     11428     11430     11425     11428     11431
     11426     11425     11427     11426     11425     11428     11427     11425     11428
     11428     11431     11432     11428     11431     11433     11428     11431     11434
     11429     11428     11430     11429     11428     11431     11430     11428     11431
     11432     11431     11433     11432     11431     11434     11433     11431     11434
     11435     11438     11439     11435     11438     11440     11435     11438     11441
     11436     11435     11437     11436     11435     11438     11437     11435     11438
     11438     11441     11442     11438     11441     11443     11438     11441     11444
     11439     11438     11440     11439     11438     11441     11440     11438     11441
     11441     11444     11445     11441     11444     11446     11441     11444     11447
     11442     11441     11443     11442     11441     11444     11443     11441     11444
     11444     11447     11448     11444     11447     11449     11444     11447     11450
     11445     11444     11446     11445     11444     11447     11446     11444     11447
     11447     11450     11451     11447     11450     11452     11447     11450     11453
     11448     11447     11449     11448     11447     11450     11449     11447     11450
     11450     11453     11454     11450     11453     11455     11450     11453     11456
     11451     11450     11452     11451     11450     11453     11452     11450     11453
     11453     11456     11457     11453     11456     11458     11453     11456     11459
     11454     11453     11455     11454     11453     11456     11455     11453     11456
     11456     11459     11460     11456     11459     11461     11456     11459     11462
     11457     11456     11458     11457     11456     11459     11458     11456     11459
     11459     11462     11463     11459     11462     11464     11459     11462     11465
     11460     11459     11461     11460     11459     11462     11461     11459     11462
     11462     11465     11466     11462     11465     11467     11462     11465     11468
     11463     11462     11464     11463     11462     11465     11464     11462     11465
     11465     11468     11469     11465     11468     11470     11465     11468     11471
     11466     11465     11467     11466     11465     11468     11467     11465     11468
     11468     11471     11472     11468     11471     11473     11468     11471     11474
     11469     11468     11470     11469     11468     11471     11470     11468     11471
     11471     11474     11475     11471     11474     11476     11471     11474     11477
     11472     11471     11473     11472     11471     11474     11473     11471     11474
     11475     11474     11476     11475     11474     11477     11476     11474     11477
     11478     11482     11483     11478     11482     11484     11478     11482     11485
     11479     11478     11480     11479     11478     11481     11479     11478     11482
     11480     11478     11481     11480     11478     11482     11481     11478     11482
     11482     11485     11486     11482     11485     11487     11482     11485     11492
     11483     11482     11484     11483     11482     11485     11484     11482     11485
     11485     11492     11488     11486     11485     11487     11486     11485     11492
     11487     11485     11492     11488     11491     11493     11489     11488     11490
     11489     11488     11491     11489     11488     11492     11490     11488     11491
     11490     11488     11492     11491     11488     11492     11491     11493     11494
     11491     11493     11495     11491     11493     11496     11493     11496     11497
     11493     11496     11498     11493     11496     11504     11494     11493     11495
     11494     11493     11496     11495     11493     11496     11496     11498     11499
     11496     11504     11505     11496     11504     11506     11496     11504     11507
     11497     11496     11498     11497     11496     11504     11498     11496     11504
     11498     11499     11500     11498     11499     11501     11499     11501     11502
     11499     11501     11503     11499     11501     11513     11500     11499     11501
     11501     11513     11514     11501     11513     11515     11501     11513     11516
     11502     11501     11503     11502     11501     11513     11503     11501     11513
     11504     11507     11508     11505     11504     11506     11505     11504     11507
     11506     11504     11507     11507     11508     11509     11507     11508     11510
     11508     11510     11511     11508     11510     11512     11508     11510     11557
     11509     11508     11510     11510     11557     11558     11510     11557     11559
     11510     11557     11560     11511     11510     11512     11511     11510     11557
     11512     11510     11557     11513     11516     11517     11513     11516     11518
     11513     11516     11519     11514     11513     11515     11514     11513     11516
     11515     11513     11516     11516     11519     11520     11516     11519     11521
     11516     11519     11522     11517     11516     11518     11517     11516     11519
     11518     11516     11519     11519     11522     11523     11519     11522     11524
     11519     11522     11525     11520     11519     11521     11520     11519     11522
     11521     11519     11522     11522     11525     11526     11522     11525     11527
     11522     11525     11528     11523     11522     11524     11523     11522     11525
     11524     11522     11525     11525     11528     11529     11525     11528     11530
     11525     11528     11531     11526     11525     11527     11526     11525     11528
     11527     11525     11528     11528     11531     11532     11528     11531     11533
     11528     11531     11536     11529     11528     11530     11529     11528     11531
     11530     11528     11531     11531     11533     11534     11531     11533     11535
     11531     11533     11536     11531     11536     11533     11531     11536     11537
     11531     11536     11538     11532     11531     11533     11532     11531     11536
     11533     11531     11536     11533     11536     11537     11533     11536     11538
     11534     11533     11535     11534     11533     11536     11535     11533     11536
     11536     11538     11539     11536     11538     11540     11536     11538     11541
     11537     11536     11538     11538     11541     11542     11538     11541     11543
     11538     11541     11544     11539     11538     11540     11539     11538     11541
     11540     11538     11541     11541     11544     11545     11541     11544     11546
     11541     11544     11547     11542     11541     11543     11542     11541     11544
     11543     11541     11544     11544     11547     11548     11544     11547     11549
     11544     11547     11550     11545     11544     11546     11545     11544     11547
     11546     11544     11547     11547     11550     11551     11547     11550     11552
     11547     11550     11553     11548     11547     11549     11548     11547     11550
     11549     11547     11550     11550     11553     11554     11550     11553     11555
     11550     11553     11556     11551     11550     11552     11551     11550     11553
     11552     11550     11553     11554     11553     11555     11554     11553     11556
     11555     11553     11556     11557     11560     11561     11557     11560     11562
     11557     11560     11563     11558     11557     11559     11558     11557     11560
     11559     11557     11560     11560     11563     11564     11560     11563     11565
     11560     11563     11566     11561     11560     11562     11561     11560     11563
     11562     11560     11563     11563     11566     11567     11563     11566     11568
     11563     11566     11569     11564     11563     11565     11564     11563     11566
     11565     11563     11566     11566     11569     11570     11566     11569     11571
     11566     11569     11572     11567     11566     11568     11567     11566     11569
     11568     11566     11569     11569     11572     11573     11569     11572     11574
     11569     11572     11575     11570     11569     11571     11570     11569     11572
     11571     11569     11572     11572     11575     11576     11572     11575     11577
     11572     11575     11578     11573     11572     11574     11573     11572     11575
     11574     11572     11575     11575     11578     11579     11575     11578     11580
     11575     11578     11581     11576     11575     11577     11576     11575     11578
     11577     11575     11578     11578     11581     11582     11578     11581     11583
     11578     11581     11584     11579     11578     11580     11579     11578     11581
     11580     11578     11581     11581     11584     11585     11581     11584     11586
     11581     11584     11587     11582     11581     11583     11582     11581     11584
     11583     11581     11584     11584     11587     11588     11584     11587     11589
     11584     11587     11590     11585     11584     11586     11585     11584     11587
     11586     11584     11587     11587     11590     11591     11587     11590     11592
     11587     11590     11593     11588     11587     11589     11588     11587     11590
     11589     11587     11590     11590     11593     11594     11590     11593     11595
     11590     11593     11596     11591     11590     11592     11591     11590     11593
     11592     11590     11593     11593     11596     11597     11593     11596     11598
     11593     11596     11599     11594     11593     11595     11594     11593     11596
     11595     11593     11596     11597     11596     11598     11597     11596     11599
     11598     11596     11599     11600     11604     11605     11600     11604     11606
     11600     11604     11607     11601     11600     11602     11601     11600     11603
     11601     11600     11604     11602     11600     11603     11602     11600     11604
     11603     11600     11604     11604     11607     11608     11604     11607     11609
     11604     11607     11614     11605     11604     11606     11605     11604     11607
     11606     11604     11607     11607     11614     11610     11608     11607     11609
     11608     11607     11614     11609     11607     11614     11610     11613     11615
     11611     11610     11612     11611     11610     11613     11611     11610     11614
     11612     11610     11613     11612     11610     11614     11613     11610     11614
     11613     11615     11616     11613     11615     11617     11613     11615     11618
     11615     11618     11619     11615     11618     11620     11615     11618     11626
     11616     11615     11617     11616     11615     11618     11617     11615     11618
     11618     11620     11621     11618     11626     11627     11618     11626     11628
     11618     11626     11629     11619     11618     11620     11619     11618     11626
     11620     11618     11626     11620     11621     11622     11620     11621     11623
     11621     11623     11624     11621     11623     11625     11621     11623     11635
     11622     11621     11623     11623     11635     11636     11623     11635     11637
     11623     11635     11638     11624     11623     11625     11624     11623     11635
     11625     11623     11635     11626     11629     11630     11627     11626     11628
     11627     11626     11629     11628     11626     11629     11629     11630     11631
     11629     11630     11632     11630     11632     11633     11630     11632     11634
     11630     11632     11679     11631     11630     11632     11632     11679     11680
     11632     11679     11681     11632     11679     11682     11633     11632     11634
     11633     11632     11679     11634     11632     11679     11635     11638     11639
     11635     11638     11640     11635     11638     11641     11636     11635     11637
     11636     11635     11638     11637     11635     11638     11638     11641     11642
     11638     11641     11643     11638     11641     11644     11639     11638     11640
     11639     11638     11641     11640     11638     11641     11641     11644     11645
     11641     11644     11646     11641     11644     11647     11642     11641     11643
     11642     11641     11644     11643     11641     11644     11644     11647     11648
     11644     11647     11649     11644     11647     11650     11645     11644     11646
     11645     11644     11647     11646     11644     11647     11647     11650     11651
     11647     11650     11652     11647     11650     11653     11648     11647     11649
     11648     11647     11650     11649     11647     11650     11650     11653     11654
     11650     11653     11655     11650     11653     11658     11651     11650     11652
     11651     11650     11653     11652     11650     11653     11653     11655     11656
     11653     11655     11657     11653     11655     11658     11653     11658     11655
     11653     11658     11659     11653     11658     11660     11654     11653     11655
     11654     11653     11658     11655     11653     11658     11655     11658     11659
     11655     11658     11660     11656     11655     11657     11656     11655     11658
     11657     11655     11658     11658     11660     11661     11658     11660     11662
     11658     11660     11663     11659     11658     11660     11660     11663     11664
     11660     11663     11665     11660     11663     11666     11661     11660     11662
     11661     11660     11663     11662     11660     11663     11663     11666     11667
     11663     11666     11668     11663     11666     11669     11664     11663     11665
     11664     11663     11666     11665     11663     11666     11666     11669     11670
     11666     11669     11671     11666     11669     11672     11667     11666     11668
     11667     11666     11669     11668     11666     11669     11669     11672     11673
     11669     11672     11674     11669     11672     11675     11670     11669     11671
     11670     11669     11672     11671     11669     11672     11672     11675     11676
     11672     11675     11677     11672     11675     11678     11673     11672     11674
     11673     11672     11675     11674     11672     11675     11676     11675     11677
     11676     11675     11678     11677     11675     11678     11679     11682     11683
     11679     11682     11684     11679     11682     11685     11680     11679     11681
     11680     11679     11682     11681     11679     11682     11682     11685     11686
     11682     11685     11687     11682     11685     11688     11683     11682     11684
     11683     11682     11685     11684     11682     11685     11685     11688     11689
     11685     11688     11690     11685     11688     11691     11686     11685     11687
     11686     11685     11688     11687     11685     11688     11688     11691     11692
     11688     11691     11693     11688     11691     11694     11689     11688     11690
     11689     11688     11691     11690     11688     11691     11691     11694     11695
     11691     11694     11696     11691     11694     11697     11692     11691     11693
     11692     11691     11694     11693     11691     11694     11694     11697     11698
     11694     11697     11699     11694     11697     11700     11695     11694     11696
     11695     11694     11697     11696     11694     11697     11697     11700     11701
     11697     11700     11702     11697     11700     11703     11698     11697     11699
     11698     11697     11700     11699     11697     11700     11700     11703     11704
     11700     11703     11705     11700     11703     11706     11701     11700     11702
     11701     11700     11703     11702     11700     11703     11703     11706     11707
     11703     11706     11708     11703     11706     11709     11704     11703     11705
     11704     11703     11706     11705     11703     11706     11706     11709     11710
     11706     11709     11711     11706     11709     11712     11707     11706     11708
     11707     11706     11709     11708     11706     11709     11709     11712     11713
     11709     11712     11714     11709     11712     11715     11710     11709     11711
     11710     11709     11712     11711     11709     11712     11712     11715     11716
     11712     11715     11717     11712     11715     11718     11713     11712     11714
     11713     11712     11715     11714     11712     11715     11715     11718     11719
     11715     11718     11720     11715     11718     11721     11716     11715     11717
     11716     11715     11718     11717     11715     11718     11719     11718     11720
     11719     11718     11721     11720     11718     11721     11722     11726     11727
     11722     11726     11728     11722     11726     11729     11723     11722     11724
     11723     11722     11725     11723     11722     11726     11724     11722     11725
     11724     11722     11726     11725     11722     11726     11726     11729     11730
     11726     11729     11731     11726     11729     11736     11727     11726     11728
     11727     11726     11729     11728     11726     11729     11729     11736     11732
     11730     11729     11731     11730     11729     11736     11731     11729     11736
     11732     11735     11737     11733     11732     11734     11733     11732     11735
     11733     11732     11736     11734     11732     11735     11734     11732     11736
     11735     11732     11736     11735     11737     11738     11735     11737     11739
     11735     11737     11740     11737     11740     11741     11737     11740     11742
     11737     11740     11748     11738     11737     11739     11738     11737     11740
     11739     11737     11740     11740     11742     11743     11740     11748     11749
     11740     11748     11750     11740     11748     11751     11741     11740     11742
     11741     11740     11748     11742     11740     11748     11742     11743     11744
     11742     11743     11745     11743     11745     11746     11743     11745     11747
     11743     11745     11757     11744     11743     11745     11745     11757     11758
     11745     11757     11759     11745     11757     11760     11746     11745     11747
     11746     11745     11757     11747     11745     11757     11748     11751     11752
     11749     11748     11750     11749     11748     11751     11750     11748     11751
     11751     11752     11753     11751     11752     11754     11752     11754     11755
     11752     11754     11756     11752     11754     11801     11753     11752     11754
     11754     11801     11802     11754     11801     11803     11754     11801     11804
     11755     11754     11756     11755     11754     11801     11756     11754     11801
     11757     11760     11761     11757     11760     11762     11757     11760     11763
     11758     11757     11759     11758     11757     11760     11759     11757     11760
     11760     11763     11764     11760     11763     11765     11760     11763     11766
     11761     11760     11762     11761     11760     11763     11762     11760     11763
     11763     11766     11767     11763     11766     11768     11763     11766     11769
     11764     11763     11765     11764     11763     11766     11765     11763     11766
     11766     11769     11770     11766     11769     11771     11766     11769     11772
     11767     11766     11768     11767     11766     11769     11768     11766     11769
     11769     11772     11773     11769     11772     11774     11769     11772     11775
     11770     11769     11771     11770     11769     11772     11771     11769     11772
     11772     11775     11776     11772     11775     11777     11772     11775     11780
     11773     11772     11774     11773     11772     11775     11774     11772     11775
     11775     11777     11778     11775     11777     11779     11775     11777     11780
     11775     11780     11777     11775     11780     11781     11775     11780     11782
     11776     11775     11777     11776     11775     11780     11777     11775     11780
     11777     11780     11781     11777     11780     11782     11778     11777     11779
     11778     11777     11780     11779     11777     11780     11780     11782     11783
     11780     11782     11784     11780     11782     11785     11781     11780     11782
     11782     11785     11786     11782     11785     11787     11782     11785     11788
     11783     11782     11784     11783     11782     11785     11784     11782     11785
     11785     11788     11789     11785     11788     11790     11785     11788     11791
     11786     11785     11787     11786     11785     11788     11787     11785     11788
     11788     11791     11792     11788     11791     11793     11788     11791     11794
     11789     11788     11790     11789     11788     11791     11790     11788     11791
     11791     11794     11795     11791     11794     11796     11791     11794     11797
     11792     11791     11793     11792     11791     11794     11793     11791     11794
     11794     11797     11798     11794     11797     11799     11794     11797     11800
     11795     11794     11796     11795     11794     11797     11796     11794     11797
     11798     11797     11799     11798     11797     11800     11799     11797     11800
     11801     11804     11805     11801     11804     11806     11801     11804     11807
     11802     11801     11803     11802     11801     11804     11803     11801     11804
     11804     11807     11808     11804     11807     11809     11804     11807     11810
     11805     11804     11806     11805     11804     11807     11806     11804     11807
     11807     11810     11811     11807     11810     11812     11807     11810     11813
     11808     11807     11809     11808     11807     11810     11809     11807     11810
     11810     11813     11814     11810     11813     11815     11810     11813     11816
     11811     11810     11812     11811     11810     11813     11812     11810     11813
     11813     11816     11817     11813     11816     11818     11813     11816     11819
     11814     11813     11815     11814     11813     11816     11815     11813     11816
     11816     11819     11820     11816     11819     11821     11816     11819     11822
     11817     11816     11818     11817     11816     11819     11818     11816     11819
     11819     11822     11823     11819     11822     11824     11819     11822     11825
     11820     11819     11821     11820     11819     11822     11821     11819     11822
     11822     11825     11826     11822     11825     11827     11822     11825     11828
     11823     11822     11824     11823     11822     11825     11824     11822     11825
     11825     11828     11829     11825     11828     11830     11825     11828     11831
     11826     11825     11827     11826     11825     11828     11827     11825     11828
     11828     11831     11832     11828     11831     11833     11828     11831     11834
     11829     11828     11830     11829     11828     11831     11830     11828     11831
     11831     11834     11835     11831     11834     11836     11831     11834     11837
     11832     11831     11833     11832     11831     11834     11833     11831     11834
     11834     11837     11838     11834     11837     11839     11834     11837     11840
     11835     11834     11836     11835     11834     11837     11836     11834     11837
     11837     11840     11841     11837     11840     11842     11837     11840     11843
     11838     11837     11839     11838     11837     11840     11839     11837     11840
     11841     11840     11842     11841     11840     11843     11842     11840     11843
     11844     11848     11849     11844     11848     11850     11844     11848     11851
     11845     11844     11846     11845     11844     11847     11845     11844     11848
     11846     11844     11847     11846     11844     11848     11847     11844     11848
     11848     11851     11852     11848     11851     11853     11848     11851     11858
     11849     11848     11850     11849     11848     11851     11850     11848     11851
     11851     11858     11854     11852     11851     11853     11852     11851     11858
     11853     11851     11858     11854     11857     11859     11855     11854     11856
     11855     11854     11857     11855     11854     11858     11856     11854     11857
     11856     11854     11858     11857     11854     11858     11857     11859     11860
     11857     11859     11861     11857     11859     11862     11859     11862     11863
     11859     11862     11864     11859     11862     11870     11860     11859     11861
     11860     11859     11862     11861     11859     11862     11862     11864     11865
     11862     11870     11871     11862     11870     11872     11862     11870     11873
     11863     11862     11864     11863     11862     11870     11864     11862     11870
     11864     11865     11866     11864     11865     11867     11865     11867     11868
     11865     11867     11869     11865     11867     11879     11866     11865     11867
     11867     11879     11880     11867     11879     11881     11867     11879     11882
     11868     11867     11869     11868     11867     11879     11869     11867     11879
     11870     11873     11874     11871     11870     11872     11871     11870     11873
     11872     11870     11873     11873     11874     11875     11873     11874     11876
     11874     11876     11877     11874     11876     11878     11874     11876     11926
     11875     11874     11876     11876     11926     11927     11876     11926     11928
     11876     11926     11929     11877     11876     11878     11877     11876     11926
     11878     11876     11926     11879     11882     11883     11879     11882     11884
     11879     11882     11885     11880     11879     11881     11880     11879     11882
     11881     11879     11882     11882     11885     11886     11882     11885     11887
     11882     11885     11888     11883     11882     11884     11883     11882     11885
     11884     11882     11885     11885     11888     11889     11885     11888     11890
     11885     11888     11891     11886     11885     11887     11886     11885     11888
     11887     11885     11888     11888     11891     11892     11888     11891     11893
     11888     11891     11894     11889     11888     11890     11889     11888     11891
     11890     11888     11891     11891     11894     11895     11891     11894     11896
     11891     11894     11897     11892     11891     11893     11892     11891     11894
     11893     11891     11894     11894     11897     11898     11894     11897     11899
     11895     11894     11896     11895     11894     11897     11896     11894     11897
     11897     11899     11900     11897     11899     11901     11898     11897     11899
     11899     11901     11902     11899     11901     11903     11899     11901     11904
     11900     11899     11901     11901     11904     11905     11901     11904     11906
     11901     11904     11907     11902     11901     11903     11902     11901     11904
     11903     11901     11904     11904     11907     11908     11904     11907     11909
     11904     11907     11910     11905     11904     11906     11905     11904     11907
     11906     11904     11907     11907     11910     11911     11907     11910     11912
     11907     11910     11913     11908     11907     11909     11908     11907     11910
     11909     11907     11910     11910     11913     11914     11910     11913     11915
     11910     11913     11916     11911     11910     11912     11911     11910     11913
     11912     11910     11913     11913     11916     11917     11913     11916     11918
     11913     11916     11919     11914     11913     11915     11914     11913     11916
     11915     11913     11916     11916     11919     11920     11916     11919     11921
     11916     11919     11922     11917     11916     11918     11917     11916     11919
     11918     11916     11919     11919     11922     11923     11919     11922     11924
     11919     11922     11925     11920     11919     11921     11920     11919     11922
     11921     11919     11922     11923     11922     11924     11923     11922     11925
     11924     11922     11925     11926     11929     11930     11926     11929     11931
     11926     11929     11932     11927     11926     11928     11927     11926     11929
     11928     11926     11929     11929     11932     11933     11929     11932     11934
     11929     11932     11935     11930     11929     11931     11930     11929     11932
     11931     11929     11932     11932     11935     11936     11932     11935     11937
     11932     11935     11938     11933     11932     11934     11933     11932     11935
     11934     11932     11935     11935     11938     11939     11935     11938     11940
     11935     11938     11941     11936     11935     11937     11936     11935     11938
     11937     11935     11938     11938     11941     11942     11938     11941     11943
     11938     11941     11944     11939     11938     11940     11939     11938     11941
     11940     11938     11941     11941     11944     11945     11941     11944     11946
     11941     11944     11947     11942     11941     11943     11942     11941     11944
     11943     11941     11944     11944     11947     11948     11944     11947     11949
     11944     11947     11950     11945     11944     11946     11945     11944     11947
     11946     11944     11947     11947     11950     11951     11947     11950     11952
     11947     11950     11953     11948     11947     11949     11948     11947     11950
     11949     11947     11950     11950     11953     11954     11950     11953     11955
     11950     11953     11956     11951     11950     11952     11951     11950     11953
     11952     11950     11953     11953     11956     11957     11953     11956     11958
     11953     11956     11959     11954     11953     11955     11954     11953     11956
     11955     11953     11956     11956     11959     11960     11956     11959     11961
     11956     11959     11962     11957     11956     11958     11957     11956     11959
     11958     11956     11959     11959     11962     11963     11959     11962     11964
     11959     11962     11965     11960     11959     11961     11960     11959     11962
     11961     11959     11962     11962     11965     11966     11962     11965     11967
     11962     11965     11968     11963     11962     11964     11963     11962     11965
     11964     11962     11965     11966     11965     11967     11966     11965     11968
     11967     11965     11968     11969     11973     11974     11969     11973     11975
     11969     11973     11976     11970     11969     11971     11970     11969     11972
     11970     11969     11973     11971     11969     11972     11971     11969     11973
     11972     11969     11973     11973     11976     11977     11973     11976     11978
     11973     11976     11983     11974     11973     11975     11974     11973     11976
     11975     11973     11976     11976     11983     11979     11977     11976     11978
     11977     11976     11983     11978     11976     11983     11979     11982     11984
     11980     11979     11981     11980     11979     11982     11980     11979     11983
     11981     11979     11982     11981     11979     11983     11982     11979     11983
     11982     11984     11985     11982     11984     11986     11982     11984     11987
     11984     11987     11988     11984     11987     11989     11984     11987     11995
     11985     11984     11986     11985     11984     11987     11986     11984     11987
     11987     11989     11990     11987     11995     11996     11987     11995     11997
     11987     11995     11998     11988     11987     11989     11988     11987     11995
     11989     11987     11995     11989     11990     11991     11989     11990     11992
     11990     11992     11993     11990     11992     11994     11990     11992     12004
     11991     11990     11992     11992     12004     12005     11992     12004     12006
     11992     12004     12007     11993     11992     11994     11993     11992     12004
     11994     11992     12004     11995     11998     11999     11996     11995     11997
     11996     11995     11998     11997     11995     11998     11998     11999     12000
     11998     11999     12001     11999     12001     12002     11999     12001     12003
     11999     12001     12048     12000     11999     12001     12001     12048     12049
     12001     12048     12050     12001     12048     12051     12002     12001     12003
     12002     12001     12048     12003     12001     12048     12004     12007     12008
     12004     12007     12009     12004     12007     12010     12005     12004     12006
     12005     12004     12007     12006     12004     12007     12007     12010     12011
     12007     12010     12012     12007     12010     12013     12008     12007     12009
     12008     12007     12010     12009     12007     12010     12010     12013     12014
     12010     12013     12015     12010     12013     12016     12011     12010     12012
     12011     12010     12013     12012     12010     12013     12013     12016     12017
     12013     12016     12018     12013     12016     12019     12014     12013     12015
     12014     12013     12016     12015     12013     12016     12016     12019     12020
     12016     12019     12021     12016     12019     12022     12017     12016     12018
     12017     12016     12019     12018     12016     12019     12019     12022     12023
     12019     12022     12024     12019     12022     12027     12020     12019     12021
     12020     12019     12022     12021     12019     12022     12022     12024     12025
     12022     12024     12026     12022     12024     12027     12022     12027     12024
     12022     12027     12028     12022     12027     12029     12023     12022     12024
     12023     12022     12027     12024     12022     12027     12024     12027     12028
     12024     12027     12029     12025     12024     12026     12025     12024     12027
     12026     12024     12027     12027     12029     12030     12027     12029     12031
     12027     12029     12032     12028     12027     12029     12029     12032     12033
     12029     12032     12034     12029     12032     12035     12030     12029     12031
     12030     12029     12032     12031     12029     12032     12032     12035     12036
     12032     12035     12037     12032     12035     12038     12033     12032     12034
     12033     12032     12035     12034     12032     12035     12035     12038     12039
     12035     12038     12040     12035     12038     12041     12036     12035     12037
     12036     12035     12038     12037     12035     12038     12038     12041     12042
     12038     12041     12043     12038     12041     12044     12039     12038     12040
     12039     12038     12041     12040     12038     12041     12041     12044     12045
     12041     12044     12046     12041     12044     12047     12042     12041     12043
     12042     12041     12044     12043     12041     12044     12045     12044     12046
     12045     12044     12047     12046     12044     12047     12048     12051     12052
     12048     12051     12053     12048     12051     12054     12049     12048     12050
     12049     12048     12051     12050     12048     12051     12051     12054     12055
     12051     12054     12056     12051     12054     12057     12052     12051     12053
     12052     12051     12054     12053     12051     12054     12054     12057     12058
     12054     12057     12059     12054     12057     12060     12055     12054     12056
     12055     12054     12057     12056     12054     12057     12057     12060     12061
     12057     12060     12062     12057     12060     12063     12058     12057     12059
     12058     12057     12060     12059     12057     12060     12060     12063     12064
     12060     12063     12065     12060     12063     12066     12061     12060     12062
     12061     12060     12063     12062     12060     12063     12063     12066     12067
     12063     12066     12068     12063     12066     12069     12064     12063     12065
     12064     12063     12066     12065     12063     12066     12066     12069     12070
     12066     12069     12071     12066     12069     12072     12067     12066     12068
     12067     12066     12069     12068     12066     12069     12069     12072     12073
     12069     12072     12074     12069     12072     12075     12070     12069     12071
     12070     12069     12072     12071     12069     12072     12072     12075     12076
     12072     12075     12077     12072     12075     12078     12073     12072     12074
     12073     12072     12075     12074     12072     12075     12075     12078     12079
     12075     12078     12080     12075     12078     12081     12076     12075     12077
     12076     12075     12078     12077     12075     12078     12078     12081     12082
     12078     12081     12083     12078     12081     12084     12079     12078     12080
     12079     12078     12081     12080     12078     12081     12081     12084     12085
     12081     12084     12086     12081     12084     12087     12082     12081     12083
     12082     12081     12084     12083     12081     12084     12084     12087     12088
     12084     12087     12089     12084     12087     12090     12085     12084     12086
     12085     12084     12087     12086     12084     12087     12088     12087     12089
     12088     12087     12090     12089     12087     12090     12091     12094     12095
     12091     12096     12097     12091     12096     12098     12091     12096     12100
     12092     12091     12093     12092     12091     12094     12092     12091     12096
     12093     12091     12094     12093     12091     12096     12094     12091     12096
     12096     12098     12099     12096     12100     12101     12096     12100     12102
     12096     12100     12107     12097     12096     12098     12097     12096     12100
     12098     12096     12100     12100     12107     12103     12101     12100     12102
     12101     12100     12107     12102     12100     12107     12103     12106     12108
     12104     12103     12105     12104     12103     12106     12104     12103     12107
     12105     12103     12106     12105     12103     12107     12106     12103     12107
     12106     12108     12109     12106     12108     12110     12106     12108     12111
     12108     12111     12112     12108     12111     12113     12108     12111     12119
     12109     12108     12110     12109     12108     12111     12110     12108     12111
     12111     12113     12114     12111     12119     12120     12111     12119     12121
     12111     12119     12122     12112     12111     12113     12112     12111     12119
     12113     12111     12119     12113     12114     12115     12113     12114     12116
     12114     12116     12117     12114     12116     12118     12114     12116     12128
     12115     12114     12116     12116     12128     12129     12116     12128     12130
     12116     12128     12131     12117     12116     12118     12117     12116     12128
     12118     12116     12128     12119     12122     12123     12120     12119     12121
     12120     12119     12122     12121     12119     12122     12122     12123     12124
     12122     12123     12125     12123     12125     12126     12123     12125     12127
     12123     12125     12172     12124     12123     12125     12125     12172     12173
     12125     12172     12174     12125     12172     12175     12126     12125     12127
     12126     12125     12172     12127     12125     12172     12128     12131     12132
     12128     12131     12133     12128     12131     12134     12129     12128     12130
     12129     12128     12131     12130     12128     12131     12131     12134     12135
     12131     12134     12136     12131     12134     12137     12132     12131     12133
     12132     12131     12134     12133     12131     12134     12134     12137     12138
     12134     12137     12139     12134     12137     12140     12135     12134     12136
     12135     12134     12137     12136     12134     12137     12137     12140     12141
     12137     12140     12142     12137     12140     12143     12138     12137     12139
     12138     12137     12140     12139     12137     12140     12140     12143     12144
     12140     12143     12145     12140     12143     12146     12141     12140     12142
     12141     12140     12143     12142     12140     12143     12143     12146     12147
     12143     12146     12148     12143     12146     12151     12144     12143     12145
     12144     12143     12146     12145     12143     12146     12146     12148     12149
     12146     12148     12150     12146     12148     12151     12146     12151     12148
     12146     12151     12152     12146     12151     12153     12147     12146     12148
     12147     12146     12151     12148     12146     12151     12148     12151     12152
     12148     12151     12153     12149     12148     12150     12149     12148     12151
     12150     12148     12151     12151     12153     12154     12151     12153     12155
     12151     12153     12156     12152     12151     12153     12153     12156     12157
     12153     12156     12158     12153     12156     12159     12154     12153     12155
     12154     12153     12156     12155     12153     12156     12156     12159     12160
     12156     12159     12161     12156     12159     12162     12157     12156     12158
     12157     12156     12159     12158     12156     12159     12159     12162     12163
     12159     12162     12164     12159     12162     12165     12160     12159     12161
     12160     12159     12162     12161     12159     12162     12162     12165     12166
     12162     12165     12167     12162     12165     12168     12163     12162     12164
     12163     12162     12165     12164     12162     12165     12165     12168     12169
     12165     12168     12170     12165     12168     12171     12166     12165     12167
     12166     12165     12168     12167     12165     12168     12169     12168     12170
     12169     12168     12171     12170     12168     12171     12172     12175     12176
     12172     12175     12177     12172     12175     12178     12173     12172     12174
     12173     12172     12175     12174     12172     12175     12175     12178     12179
     12175     12178     12180     12175     12178     12181     12176     12175     12177
     12176     12175     12178     12177     12175     12178     12178     12181     12182
     12178     12181     12183     12178     12181     12184     12179     12178     12180
     12179     12178     12181     12180     12178     12181     12181     12184     12185
     12181     12184     12186     12181     12184     12187     12182     12181     12183
     12182     12181     12184     12183     12181     12184     12184     12187     12188
     12184     12187     12189     12184     12187     12190     12185     12184     12186
     12185     12184     12187     12186     12184     12187     12187     12190     12191
     12187     12190     12192     12187     12190     12193     12188     12187     12189
     12188     12187     12190     12189     12187     12190     12190     12193     12194
     12190     12193     12195     12190     12193     12196     12191     12190     12192
     12191     12190     12193     12192     12190     12193     12193     12196     12197
     12193     12196     12198     12193     12196     12199     12194     12193     12195
     12194     12193     12196     12195     12193     12196     12196     12199     12200
     12196     12199     12201     12196     12199     12202     12197     12196     12198
     12197     12196     12199     12198     12196     12199     12199     12202     12203
     12199     12202     12204     12199     12202     12205     12200     12199     12201
     12200     12199     12202     12201     12199     12202     12202     12205     12206
     12202     12205     12207     12202     12205     12208     12203     12202     12204
     12203     12202     12205     12204     12202     12205     12205     12208     12209
     12205     12208     12210     12205     12208     12211     12206     12205     12207
     12206     12205     12208     12207     12205     12208     12208     12211     12212
     12208     12211     12213     12208     12211     12214     12209     12208     12210
     12209     12208     12211     12210     12208     12211     12212     12211     12213
     12212     12211     12214     12213     12211     12214     12215     12219     12220
     12215     12219     12221     12215     12219     12222     12216     12215     12217
     12216     12215     12218     12216     12215     12219     12217     12215     12218
     12217     12215     12219     12218     12215     12219     12219     12222     12223
     12219     12222     12224     12219     12222     12229     12220     12219     12221
     12220     12219     12222     12221     12219     12222     12222     12229     12225
     12223     12222     12224     12223     12222     12229     12224     12222     12229
     12225     12228     12230     12226     12225     12227     12226     12225     12228
     12226     12225     12229     12227     12225     12228     12227     12225     12229
     12228     12225     12229     12228     12230     12231     12228     12230     12232
     12228     12230     12233     12230     12233     12234     12230     12233     12235
     12230     12233     12241     12231     12230     12232     12231     12230     12233
     12232     12230     12233     12233     12235     12236     12233     12241     12242
     12233     12241     12243     12233     12241     12244     12234     12233     12235
     12234     12233     12241     12235     12233     12241     12235     12236     12237
     12235     12236     12238     12236     12238     12239     12236     12238     12240
     12236     12238     12250     12237     12236     12238     12238     12250     12251
     12238     12250     12252     12238     12250     12253     12239     12238     12240
     12239     12238     12250     12240     12238     12250     12241     12244     12245
     12242     12241     12243     12242     12241     12244     12243     12241     12244
     12244     12245     12246     12244     12245     12247     12245     12247     12248
     12245     12247     12249     12245     12247     12294     12246     12245     12247
     12247     12294     12295     12247     12294     12296     12247     12294     12297
     12248     12247     12249     12248     12247     12294     12249     12247     12294
     12250     12253     12254     12250     12253     12255     12250     12253     12256
     12251     12250     12252     12251     12250     12253     12252     12250     12253
     12253     12256     12257     12253     12256     12258     12253     12256     12259
     12254     12253     12255     12254     12253     12256     12255     12253     12256
     12256     12259     12260     12256     12259     12261     12256     12259     12262
     12257     12256     12258     12257     12256     12259     12258     12256     12259
     12259     12262     12263     12259     12262     12264     12259     12262     12265
     12260     12259     12261     12260     12259     12262     12261     12259     12262
     12262     12265     12266     12262     12265     12267     12262     12265     12268
     12263     12262     12264     12263     12262     12265     12264     12262     12265
     12265     12268     12269     12265     12268     12270     12265     12268     12273
     12266     12265     12267     12266     12265     12268     12267     12265     12268
     12268     12270     12271     12268     12270     12272     12268     12270     12273
     12268     12273     12270     12268     12273     12274     12268     12273     12275
     12269     12268     12270     12269     12268     12273     12270     12268     12273
     12270     12273     12274     12270     12273     12275     12271     12270     12272
     12271     12270     12273     12272     12270     12273     12273     12275     12276
     12273     12275     12277     12273     12275     12278     12274     12273     12275
     12275     12278     12279     12275     12278     12280     12275     12278     12281
     12276     12275     12277     12276     12275     12278     12277     12275     12278
     12278     12281     12282     12278     12281     12283     12278     12281     12284
     12279     12278     12280     12279     12278     12281     12280     12278     12281
     12281     12284     12285     12281     12284     12286     12281     12284     12287
     12282     12281     12283     12282     12281     12284     12283     12281     12284
     12284     12287     12288     12284     12287     12289     12284     12287     12290
     12285     12284     12286     12285     12284     12287     12286     12284     12287
     12287     12290     12291     12287     12290     12292     12287     12290     12293
     12288     12287     12289     12288     12287     12290     12289     12287     12290
     12291     12290     12292     12291     12290     12293     12292     12290     12293
     12294     12297     12298     12294     12297     12299     12294     12297     12300
     12295     12294     12296     12295     12294     12297     12296     12294     12297
     12297     12300     12301     12297     12300     12302     12297     12300     12303
     12298     12297     12299     12298     12297     12300     12299     12297     12300
     12300     12303     12304     12300     12303     12305     12300     12303     12306
     12301     12300     12302     12301     12300     12303     12302     12300     12303
     12303     12306     12307     12303     12306     12308     12303     12306     12309
     12304     12303     12305     12304     12303     12306     12305     12303     12306
     12306     12309     12310     12306     12309     12311     12306     12309     12312
     12307     12306     12308     12307     12306     12309     12308     12306     12309
     12309     12312     12313     12309     12312     12314     12309     12312     12315
     12310     12309     12311     12310     12309     12312     12311     12309     12312
     12312     12315     12316     12312     12315     12317     12312     12315     12318
     12313     12312     12314     12313     12312     12315     12314     12312     12315
     12315     12318     12319     12315     12318     12320     12315     12318     12321
     12316     12315     12317     12316     12315     12318     12317     12315     12318
     12318     12321     12322     12318     12321     12323     12318     12321     12324
     12319     12318     12320     12319     12318     12321     12320     12318     12321
     12321     12324     12325     12321     12324     12326     12321     12324     12327
     12322     12321     12323     12322     12321     12324     12323     12321     12324
     12324     12327     12328     12324     12327     12329     12324     12327     12330
     12325     12324     12326     12325     12324     12327     12326     12324     12327
     12327     12330     12331     12327     12330     12332     12327     12330     12333
     12328     12327     12329     12328     12327     12330     12329     12327     12330
     12330     12333     12334     12330     12333     12335     12330     12333     12336
     12331     12330     12332     12331     12330     12333     12332     12330     12333
     12334     12333     12335     12334     12333     12336     12335     12333     12336
     12337     12341     12342     12337     12341     12343     12337     12341     12344
     12338     12337     12339     12338     12337     12340     12338     12337     12341
     12339     12337     12340     12339     12337     12341     12340     12337     12341
     12341     12344     12345     12341     12344     12346     12341     12344     12351
     12342     12341     12343     12342     12341     12344     12343     12341     12344
     12344     12351     12347     12345     12344     12346     12345     12344     12351
     12346     12344     12351     12347     12350     12352     12348     12347     12349
     12348     12347     12350     12348     12347     12351     12349     12347     12350
     12349     12347     12351     12350     12347     12351     12350     12352     12353
     12350     12352     12354     12350     12352     12355     12352     12355     12356
     12352     12355     12357     12352     12355     12363     12353     12352     12354
     12353     12352     12355     12354     12352     12355     12355     12357     12358
     12355     12363     12364     12355     12363     12365     12355     12363     12366
     12356     12355     12357     12356     12355     12363     12357     12355     12363
     12357     12358     12359     12357     12358     12360     12358     12360     12361
     12358     12360     12362     12358     12360     12372     12359     12358     12360
     12360     12372     12373     12360     12372     12374     12360     12372     12375
     12361     12360     12362     12361     12360     12372     12362     12360     12372
     12363     12366     12367     12364     12363     12365     12364     12363     12366
     12365     12363     12366     12366     12367     12368     12366     12367     12369
     12367     12369     12370     12367     12369     12371     12367     12369     12416
     12368     12367     12369     12369     12416     12417     12369     12416     12418
     12369     12416     12419     12370     12369     12371     12370     12369     12416
     12371     12369     12416     12372     12375     12376     12372     12375     12377
     12372     12375     12378     12373     12372     12374     12373     12372     12375
     12374     12372     12375     12375     12378     12379     12375     12378     12380
     12375     12378     12381     12376     12375     12377     12376     12375     12378
     12377     12375     12378     12378     12381     12382     12378     12381     12383
     12378     12381     12384     12379     12378     12380     12379     12378     12381
     12380     12378     12381     12381     12384     12385     12381     12384     12386
     12381     12384     12387     12382     12381     12383     12382     12381     12384
     12383     12381     12384     12384     12387     12388     12384     12387     12389
     12384     12387     12390     12385     12384     12386     12385     12384     12387
     12386     12384     12387     12387     12390     12391     12387     12390     12392
     12387     12390     12395     12388     12387     12389     12388     12387     12390
     12389     12387     12390     12390     12392     12393     12390     12392     12394
     12390     12392     12395     12390     12395     12392     12390     12395     12396
     12390     12395     12397     12391     12390     12392     12391     12390     12395
     12392     12390     12395     12392     12395     12396     12392     12395     12397
     12393     12392     12394     12393     12392     12395     12394     12392     12395
     12395     12397     12398     12395     12397     12399     12395     12397     12400
     12396     12395     12397     12397     12400     12401     12397     12400     12402
     12397     12400     12403     12398     12397     12399     12398     12397     12400
     12399     12397     12400     12400     12403     12404     12400     12403     12405
     12400     12403     12406     12401     12400     12402     12401     12400     12403
     12402     12400     12403     12403     12406     12407     12403     12406     12408
     12403     12406     12409     12404     12403     12405     12404     12403     12406
     12405     12403     12406     12406     12409     12410     12406     12409     12411
     12406     12409     12412     12407     12406     12408     12407     12406     12409
     12408     12406     12409     12409     12412     12413     12409     12412     12414
     12409     12412     12415     12410     12409     12411     12410     12409     12412
     12411     12409     12412     12413     12412     12414     12413     12412     12415
     12414     12412     12415     12416     12419     12420     12416     12419     12421
     12416     12419     12422     12417     12416     12418     12417     12416     12419
     12418     12416     12419     12419     12422     12423     12419     12422     12424
     12419     12422     12425     12420     12419     12421     12420     12419     12422
     12421     12419     12422     12422     12425     12426     12422     12425     12427
     12422     12425     12428     12423     12422     12424     12423     12422     12425
     12424     12422     12425     12425     12428     12429     12425     12428     12430
     12425     12428     12431     12426     12425     12427     12426     12425     12428
     12427     12425     12428     12428     12431     12432     12428     12431     12433
     12428     12431     12434     12429     12428     12430     12429     12428     12431
     12430     12428     12431     12431     12434     12435     12431     12434     12436
     12431     12434     12437     12432     12431     12433     12432     12431     12434
     12433     12431     12434     12434     12437     12438     12434     12437     12439
     12434     12437     12440     12435     12434     12436     12435     12434     12437
     12436     12434     12437     12437     12440     12441     12437     12440     12442
     12437     12440     12443     12438     12437     12439     12438     12437     12440
     12439     12437     12440     12440     12443     12444     12440     12443     12445
     12440     12443     12446     12441     12440     12442     12441     12440     12443
     12442     12440     12443     12443     12446     12447     12443     12446     12448
     12443     12446     12449     12444     12443     12445     12444     12443     12446
     12445     12443     12446     12446     12449     12450     12446     12449     12451
     12446     12449     12452     12447     12446     12448     12447     12446     12449
     12448     12446     12449     12449     12452     12453     12449     12452     12454
     12449     12452     12455     12450     12449     12451     12450     12449     12452
     12451     12449     12452     12452     12455     12456     12452     12455     12457
     12452     12455     12458     12453     12452     12454     12453     12452     12455
     12454     12452     12455     12456     12455     12457     12456     12455     12458
     12457     12455     12458     12459     12463     12464     12459     12463     12465
     12459     12463     12466     12460     12459     12461     12460     12459     12462
     12460     12459     12463     12461     12459     12462     12461     12459     12463
     12462     12459     12463     12463     12466     12467     12463     12466     12468
     12463     12466     12473     12464     12463     12465     12464     12463     12466
     12465     12463     12466     12466     12473     12469     12467     12466     12468
     12467     12466     12473     12468     12466     12473     12469     12472     12474
     12470     12469     12471     12470     12469     12472     12470     12469     12473
     12471     12469     12472     12471     12469     12473     12472     12469     12473
     12472     12474     12475     12472     12474     12476     12472     12474     12477
     12474     12477     12478     12474     12477     12479     12474     12477     12485
     12475     12474     12476     12475     12474     12477     12476     12474     12477
     12477     12479     12480     12477     12485     12486     12477     12485     12487
     12477     12485     12488     12478     12477     12479     12478     12477     12485
     12479     12477     12485     12479     12480     12481     12479     12480     12482
     12480     12482     12483     12480     12482     12484     12480     12482     12494
     12481     12480     12482     12482     12494     12495     12482     12494     12496
     12482     12494     12497     12483     12482     12484     12483     12482     12494
     12484     12482     12494     12485     12488     12489     12486     12485     12487
     12486     12485     12488     12487     12485     12488     12488     12489     12490
     12488     12489     12491     12489     12491     12492     12489     12491     12493
     12489     12491     12538     12490     12489     12491     12491     12538     12539
     12491     12538     12540     12491     12538     12541     12492     12491     12493
     12492     12491     12538     12493     12491     12538     12494     12497     12498
     12494     12497     12499     12494     12497     12500     12495     12494     12496
     12495     12494     12497     12496     12494     12497     12497     12500     12501
     12497     12500     12502     12497     12500     12503     12498     12497     12499
     12498     12497     12500     12499     12497     12500     12500     12503     12504
     12500     12503     12505     12500     12503     12506     12501     12500     12502
     12501     12500     12503     12502     12500     12503     12503     12506     12507
     12503     12506     12508     12503     12506     12509     12504     12503     12505
     12504     12503     12506     12505     12503     12506     12506     12509     12510
     12506     12509     12511     12506     12509     12512     12507     12506     12508
     12507     12506     12509     12508     12506     12509     12509     12512     12513
     12509     12512     12514     12509     12512     12517     12510     12509     12511
     12510     12509     12512     12511     12509     12512     12512     12514     12515
     12512     12514     12516     12512     12514     12517     12512     12517     12514
     12512     12517     12518     12512     12517     12519     12513     12512     12514
     12513     12512     12517     12514     12512     12517     12514     12517     12518
     12514     12517     12519     12515     12514     12516     12515     12514     12517
     12516     12514     12517     12517     12519     12520     12517     12519     12521
     12517     12519     12522     12518     12517     12519     12519     12522     12523
     12519     12522     12524     12519     12522     12525     12520     12519     12521
     12520     12519     12522     12521     12519     12522     12522     12525     12526
     12522     12525     12527     12522     12525     12528     12523     12522     12524
     12523     12522     12525     12524     12522     12525     12525     12528     12529
     12525     12528     12530     12525     12528     12531     12526     12525     12527
     12526     12525     12528     12527     12525     12528     12528     12531     12532
     12528     12531     12533     12528     12531     12534     12529     12528     12530
     12529     12528     12531     12530     12528     12531     12531     12534     12535
     12531     12534     12536     12531     12534     12537     12532     12531     12533
     12532     12531     12534     12533     12531     12534     12535     12534     12536
     12535     12534     12537     12536     12534     12537     12538     12541     12542
     12538     12541     12543     12538     12541     12544     12539     12538     12540
     12539     12538     12541     12540     12538     12541     12541     12544     12545
     12541     12544     12546     12541     12544     12547     12542     12541     12543
     12542     12541     12544     12543     12541     12544     12544     12547     12548
     12544     12547     12549     12544     12547     12550     12545     12544     12546
     12545     12544     12547     12546     12544     12547     12547     12550     12551
     12547     12550     12552     12547     12550     12553     12548     12547     12549
     12548     12547     12550     12549     12547     12550     12550     12553     12554
     12550     12553     12555     12550     12553     12556     12551     12550     12552
     12551     12550     12553     12552     12550     12553     12553     12556     12557
     12553     12556     12558     12553     12556     12559     12554     12553     12555
     12554     12553     12556     12555     12553     12556     12556     12559     12560
     12556     12559     12561     12556     12559     12562     12557     12556     12558
     12557     12556     12559     12558     12556     12559     12559     12562     12563
     12559     12562     12564     12559     12562     12565     12560     12559     12561
     12560     12559     12562     12561     12559     12562     12562     12565     12566
     12562     12565     12567     12562     12565     12568     12563     12562     12564
     12563     12562     12565     12564     12562     12565     12565     12568     12569
     12565     12568     12570     12565     12568     12571     12566     12565     12567
     12566     12565     12568     12567     12565     12568     12568     12571     12572
     12568     12571     12573     12568     12571     12574     12569     12568     12570
     12569     12568     12571     12570     12568     12571     12571     12574     12575
     12571     12574     12576     12571     12574     12577     12572     12571     12573
     12572     12571     12574     12573     12571     12574     12574     12577     12578
     12574     12577     12579     12574     12577     12580     12575     12574     12576
     12575     12574     12577     12576     12574     12577     12578     12577     12579
     12578     12577     12580     12579     12577     12580     12581     12585     12586
     12581     12585     12587     12581     12585     12588     12582     12581     12583
     12582     12581     12584     12582     12581     12585     12583     12581     12584
     12583     12581     12585     12584     12581     12585     12585     12588     12589
     12585     12588     12590     12585     12588     12595     12586     12585     12587
     12586     12585     12588     12587     12585     12588     12588     12595     12591
     12589     12588     12590     12589     12588     12595     12590     12588     12595
     12591     12594     12596     12592     12591     12593     12592     12591     12594
     12592     12591     12595     12593     12591     12594     12593     12591     12595
     12594     12591     12595     12594     12596     12597     12594     12596     12598
     12594     12596     12599     12596     12599     12600     12596     12599     12601
     12596     12599     12607     12597     12596     12598     12597     12596     12599
     12598     12596     12599     12599     12601     12602     12599     12607     12608
     12599     12607     12609     12599     12607     12610     12600     12599     12601
     12600     12599     12607     12601     12599     12607     12601     12602     12603
     12601     12602     12604     12602     12604     12605     12602     12604     12606
     12602     12604     12616     12603     12602     12604     12604     12616     12617
     12604     12616     12618     12604     12616     12619     12605     12604     12606
     12605     12604     12616     12606     12604     12616     12607     12610     12611
     12608     12607     12609     12608     12607     12610     12609     12607     12610
     12610     12611     12612     12610     12611     12613     12611     12613     12614
     12611     12613     12615     12611     12613     12660     12612     12611     12613
     12613     12660     12661     12613     12660     12662     12613     12660     12663
     12614     12613     12615     12614     12613     12660     12615     12613     12660
     12616     12619     12620     12616     12619     12621     12616     12619     12622
     12617     12616     12618     12617     12616     12619     12618     12616     12619
     12619     12622     12623     12619     12622     12624     12619     12622     12625
     12620     12619     12621     12620     12619     12622     12621     12619     12622
     12622     12625     12626     12622     12625     12627     12622     12625     12628
     12623     12622     12624     12623     12622     12625     12624     12622     12625
     12625     12628     12629     12625     12628     12630     12625     12628     12631
     12626     12625     12627     12626     12625     12628     12627     12625     12628
     12628     12631     12632     12628     12631     12633     12628     12631     12634
     12629     12628     12630     12629     12628     12631     12630     12628     12631
     12631     12634     12635     12631     12634     12636     12631     12634     12639
     12632     12631     12633     12632     12631     12634     12633     12631     12634
     12634     12636     12637     12634     12636     12638     12634     12636     12639
     12634     12639     12636     12634     12639     12640     12634     12639     12641
     12635     12634     12636     12635     12634     12639     12636     12634     12639
     12636     12639     12640     12636     12639     12641     12637     12636     12638
     12637     12636     12639     12638     12636     12639     12639     12641     12642
     12639     12641     12643     12639     12641     12644     12640     12639     12641
     12641     12644     12645     12641     12644     12646     12641     12644     12647
     12642     12641     12643     12642     12641     12644     12643     12641     12644
     12644     12647     12648     12644     12647     12649     12644     12647     12650
     12645     12644     12646     12645     12644     12647     12646     12644     12647
     12647     12650     12651     12647     12650     12652     12647     12650     12653
     12648     12647     12649     12648     12647     12650     12649     12647     12650
     12650     12653     12654     12650     12653     12655     12650     12653     12656
     12651     12650     12652     12651     12650     12653     12652     12650     12653
     12653     12656     12657     12653     12656     12658     12653     12656     12659
     12654     12653     12655     12654     12653     12656     12655     12653     12656
     12657     12656     12658     12657     12656     12659     12658     12656     12659
     12660     12663     12664     12660     12663     12665     12660     12663     12666
     12661     12660     12662     12661     12660     12663     12662     12660     12663
     12663     12666     12667     12663     12666     12668     12663     12666     12669
     12664     12663     12665     12664     12663     12666     12665     12663     12666
     12666     12669     12670     12666     12669     12671     12666     12669     12672
     12667     12666     12668     12667     12666     12669     12668     12666     12669
     12669     12672     12673     12669     12672     12674     12669     12672     12675
     12670     12669     12671     12670     12669     12672     12671     12669     12672
     12672     12675     12676     12672     12675     12677     12672     12675     12678
     12673     12672     12674     12673     12672     12675     12674     12672     12675
     12675     12678     12679     12675     12678     12680     12675     12678     12681
     12676     12675     12677     12676     12675     12678     12677     12675     12678
     12678     12681     12682     12678     12681     12683     12678     12681     12684
     12679     12678     12680     12679     12678     12681     12680     12678     12681
     12681     12684     12685     12681     12684     12686     12681     12684     12687
     12682     12681     12683     12682     12681     12684     12683     12681     12684
     12684     12687     12688     12684     12687     12689     12684     12687     12690
     12685     12684     12686     12685     12684     12687     12686     12684     12687
     12687     12690     12691     12687     12690     12692     12687     12690     12693
     12688     12687     12689     12688     12687     12690     12689     12687     12690
     12690     12693     12694     12690     12693     12695     12690     12693     12696
     12691     12690     12692     12691     12690     12693     12692     12690     12693
     12693     12696     12697     12693     12696     12698     12693     12696     12699
     12694     12693     12695     12694     12693     12696     12695     12693     12696
     12697     12696     12698     12697     12696     12699     12698     12696     12699
     12700     12704     12705     12700     12704     12706     12700     12704     12707
     12701     12700     12702     12701     12700     12703     12701     12700     12704
     12702     12700     12703     12702     12700     12704     12703     12700     12704
     12704     12707     12708     12704     12707     12709     12704     12707     12714
     12705     12704     12706     12705     12704     12707     12706     12704     12707
     12707     12714     12710     12708     12707     12709     12708     12707     12714
     12709     12707     12714     12710     12713     12715     12711     12710     12712
     12711     12710     12713     12711     12710     12714     12712     12710     12713
     12712     12710     12714     12713     12710     12714     12713     12715     12716
     12713     12715     12717     12713     12715     12718     12715     12718     12719
     12715     12718     12720     12715     12718     12726     12716     12715     12717
     12716     12715     12718     12717     12715     12718     12718     12720     12721
     12718     12726     12727     12718     12726     12728     12718     12726     12729
     12719     12718     12720     12719     12718     12726     12720     12718     12726
     12720     12721     12722     12720     12721     12723     12721     12723     12724
     12721     12723     12725     12721     12723     12735     12722     12721     12723
     12723     12735     12736     12723     12735     12737     12723     12735     12738
     12724     12723     12725     12724     12723     12735     12725     12723     12735
     12726     12729     12730     12727     12726     12728     12727     12726     12729
     12728     12726     12729     12729     12730     12731     12729     12730     12732
     12730     12732     12733     12730     12732     12734     12730     12732     12782
     12731     12730     12732     12732     12782     12783     12732     12782     12784
     12732     12782     12785     12733     12732     12734     12733     12732     12782
     12734     12732     12782     12735     12738     12739     12735     12738     12740
     12735     12738     12741     12736     12735     12737     12736     12735     12738
     12737     12735     12738     12738     12741     12742     12738     12741     12743
     12738     12741     12744     12739     12738     12740     12739     12738     12741
     12740     12738     12741     12741     12744     12745     12741     12744     12746
     12741     12744     12747     12742     12741     12743     12742     12741     12744
     12743     12741     12744     12744     12747     12748     12744     12747     12749
     12744     12747     12750     12745     12744     12746     12745     12744     12747
     12746     12744     12747     12747     12750     12751     12747     12750     12752
     12747     12750     12753     12748     12747     12749     12748     12747     12750
     12749     12747     12750     12750     12753     12754     12750     12753     12755
     12751     12750     12752     12751     12750     12753     12752     12750     12753
     12753     12755     12756     12753     12755     12757     12754     12753     12755
     12755     12757     12758     12755     12757     12759     12755     12757     12760
     12756     12755     12757     12757     12760     12761     12757     12760     12762
     12757     12760     12763     12758     12757     12759     12758     12757     12760
     12759     12757     12760     12760     12763     12764     12760     12763     12765
     12760     12763     12766     12761     12760     12762     12761     12760     12763
     12762     12760     12763     12763     12766     12767     12763     12766     12768
     12763     12766     12769     12764     12763     12765     12764     12763     12766
     12765     12763     12766     12766     12769     12770     12766     12769     12771
     12766     12769     12772     12767     12766     12768     12767     12766     12769
     12768     12766     12769     12769     12772     12773     12769     12772     12774
     12769     12772     12775     12770     12769     12771     12770     12769     12772
     12771     12769     12772     12772     12775     12776     12772     12775     12777
     12772     12775     12778     12773     12772     12774     12773     12772     12775
     12774     12772     12775     12775     12778     12779     12775     12778     12780
     12775     12778     12781     12776     12775     12777     12776     12775     12778
     12777     12775     12778     12779     12778     12780     12779     12778     12781
     12780     12778     12781     12782     12785     12786     12782     12785     12787
     12782     12785     12788     12783     12782     12784     12783     12782     12785
     12784     12782     12785     12785     12788     12789     12785     12788     12790
     12785     12788     12791     12786     12785     12787     12786     12785     12788
     12787     12785     12788     12788     12791     12792     12788     12791     12793
     12788     12791     12794     12789     12788     12790     12789     12788     12791
     12790     12788     12791     12791     12794     12795     12791     12794     12796
     12791     12794     12797     12792     12791     12793     12792     12791     12794
     12793     12791     12794     12794     12797     12798     12794     12797     12799
     12794     12797     12800     12795     12794     12796     12795     12794     12797
     12796     12794     12797     12797     12800     12801     12797     12800     12802
     12797     12800     12803     12798     12797     12799     12798     12797     12800
     12799     12797     12800     12800     12803     12804     12800     12803     12805
     12800     12803     12806     12801     12800     12802     12801     12800     12803
     12802     12800     12803     12803     12806     12807     12803     12806     12808
     12803     12806     12809     12804     12803     12805     12804     12803     12806
     12805     12803     12806     12806     12809     12810     12806     12809     12811
     12806     12809     12812     12807     12806     12808     12807     12806     12809
     12808     12806     12809     12809     12812     12813     12809     12812     12814
     12809     12812     12815     12810     12809     12811     12810     12809     12812
     12811     12809     12812     12812     12815     12816     12812     12815     12817
     12812     12815     12818     12813     12812     12814     12813     12812     12815
     12814     12812     12815     12815     12818     12819     12815     12818     12820
     12815     12818     12821     12816     12815     12817     12816     12815     12818
     12817     12815     12818     12818     12821     12822     12818     12821     12823
     12818     12821     12824     12819     12818     12820     12819     12818     12821
     12820     12818     12821     12822     12821     12823     12822     12821     12824
     12823     12821     12824     12825     12829     12830     12825     12829     12831
     12825     12829     12832     12826     12825     12827     12826     12825     12828
     12826     12825     12829     12827     12825     12828     12827     12825     12829
     12828     12825     12829     12829     12832     12833     12829     12832     12834
     12829     12832     12839     12830     12829     12831     12830     12829     12832
     12831     12829     12832     12832     12839     12835     12833     12832     12834
     12833     12832     12839     12834     12832     12839     12835     12838     12840
     12836     12835     12837     12836     12835     12838     12836     12835     12839
     12837     12835     12838     12837     12835     12839     12838     12835     12839
     12838     12840     12841     12838     12840     12842     12838     12840     12843
     12840     12843     12844     12840     12843     12845     12840     12843     12851
     12841     12840     12842     12841     12840     12843     12842     12840     12843
     12843     12845     12846     12843     12851     12852     12843     12851     12853
     12843     12851     12854     12844     12843     12845     12844     12843     12851
     12845     12843     12851     12845     12846     12847     12845     12846     12848
     12846     12848     12849     12846     12848     12850     12846     12848     12860
     12847     12846     12848     12848     12860     12861     12848     12860     12862
     12848     12860     12863     12849     12848     12850     12849     12848     12860
     12850     12848     12860     12851     12854     12855     12852     12851     12853
     12852     12851     12854     12853     12851     12854     12854     12855     12856
     12854     12855     12857     12855     12857     12858     12855     12857     12859
     12855     12857     12901     12856     12855     12857     12857     12901     12902
     12857     12901     12903     12857     12901     12904     12858     12857     12859
     12858     12857     12901     12859     12857     12901     12860     12863     12864
     12860     12863     12865     12860     12863     12866     12861     12860     12862
     12861     12860     12863     12862     12860     12863     12863     12866     12867
     12863     12866     12868     12863     12866     12869     12864     12863     12865
     12864     12863     12866     12865     12863     12866     12866     12869     12870
     12866     12869     12871     12866     12869     12872     12867     12866     12868
     12867     12866     12869     12868     12866     12869     12869     12872     12873
     12869     12872     12874     12869     12872     12875     12870     12869     12871
     12870     12869     12872     12871     12869     12872     12872     12875     12876
     12872     12875     12877     12872     12875     12878     12873     12872     12874
     12873     12872     12875     12874     12872     12875     12875     12878     12879
     12875     12878     12880     12876     12875     12877     12876     12875     12878
     12877     12875     12878     12878     12880     12881     12878     12880     12882
     12879     12878     12880     12880     12882     12883     12880     12882     12884
     12880     12882     12885     12881     12880     12882     12882     12885     12886
     12882     12885     12887     12882     12885     12888     12883     12882     12884
     12883     12882     12885     12884     12882     12885     12885     12888     12889
     12885     12888     12890     12885     12888     12891     12886     12885     12887
     12886     12885     12888     12887     12885     12888     12888     12891     12892
     12888     12891     12893     12888     12891     12894     12889     12888     12890
     12889     12888     12891     12890     12888     12891     12891     12894     12895
     12891     12894     12896     12891     12894     12897     12892     12891     12893
     12892     12891     12894     12893     12891     12894     12894     12897     12898
     12894     12897     12899     12894     12897     12900     12895     12894     12896
     12895     12894     12897     12896     12894     12897     12898     12897     12899
     12898     12897     12900     12899     12897     12900     12901     12904     12905
     12901     12904     12906     12901     12904     12907     12902     12901     12903
     12902     12901     12904     12903     12901     12904     12904     12907     12908
     12904     12907     12909     12904     12907     12910     12905     12904     12906
     12905     12904     12907     12906     12904     12907     12907     12910     12911
     12907     12910     12912     12907     12910     12913     12908     12907     12909
     12908     12907     12910     12909     12907     12910     12910     12913     12914
     12910     12913     12915     12910     12913     12916     12911     12910     12912
     12911     12910     12913     12912     12910     12913     12913     12916     12917
     12913     12916     12918     12913     12916     12919     12914     12913     12915
     12914     12913     12916     12915     12913     12916     12916     12919     12920
     12916     12919     12921     12917     12916     12918     12917     12916     12919
     12918     12916     12919     12919     12921     12922     12919     12921     12923
     12920     12919     12921     12921     12923     12924     12921     12923     12925
     12921     12923     12926     12922     12921     12923     12923     12926     12927
     12923     12926     12928     12923     12926     12929     12924     12923     12925
     12924     12923     12926     12925     12923     12926     12926     12929     12930
     12926     12929     12931     12926     12929     12932     12927     12926     12928
     12927     12926     12929     12928     12926     12929     12929     12932     12933
     12929     12932     12934     12929     12932     12935     12930     12929     12931
     12930     12929     12932     12931     12929     12932     12932     12935     12936
     12932     12935     12937     12932     12935     12938     12933     12932     12934
     12933     12932     12935     12934     12932     12935     12935     12938     12939
     12935     12938     12940     12935     12938     12941     12936     12935     12937
     12936     12935     12938     12937     12935     12938     12938     12941     12942
     12938     12941     12943     12938     12941     12944     12939     12938     12940
     12939     12938     12941     12940     12938     12941     12941     12944     12945
     12941     12944     12946     12941     12944     12947     12942     12941     12943
     12942     12941     12944     12943     12941     12944     12945     12944     12946
     12945     12944     12947     12946     12944     12947     12948     12951     12952
     12948     12953     12954     12948     12953     12955     12948     12953     12957
     12949     12948     12950     12949     12948     12951     12949     12948     12953
     12950     12948     12951     12950     12948     12953     12951     12948     12953
     12953     12955     12956     12953     12957     12958     12953     12957     12959
     12953     12957     12964     12954     12953     12955     12954     12953     12957
     12955     12953     12957     12957     12964     12960     12958     12957     12959
     12958     12957     12964     12959     12957     12964     12960     12963     12965
     12961     12960     12962     12961     12960     12963     12961     12960     12964
     12962     12960     12963     12962     12960     12964     12963     12960     12964
     12963     12965     12966     12963     12965     12967     12963     12965     12968
     12965     12968     12969     12965     12968     12970     12965     12968     12976
     12966     12965     12967     12966     12965     12968     12967     12965     12968
     12968     12970     12971     12968     12976     12977     12968     12976     12978
     12968     12976     12979     12969     12968     12970     12969     12968     12976
     12970     12968     12976     12970     12971     12972     12970     12971     12973
     12971     12973     12974     12971     12973     12975     12971     12973     12985
     12972     12971     12973     12973     12985     12986     12973     12985     12987
     12973     12985     12988     12974     12973     12975     12974     12973     12985
     12975     12973     12985     12976     12979     12980     12977     12976     12978
     12977     12976     12979     12978     12976     12979     12979     12980     12981
     12979     12980     12982     12980     12982     12983     12980     12982     12984
     12980     12982     13026     12981     12980     12982     12982     13026     13027
     12982     13026     13028     12982     13026     13029     12983     12982     12984
     12983     12982     13026     12984     12982     13026     12985     12988     12989
     12985     12988     12990     12985     12988     12991     12986     12985     12987
     12986     12985     12988     12987     12985     12988     12988     12991     12992
     12988     12991     12993     12988     12991     12994     12989     12988     12990
     12989     12988     12991     12990     12988     12991     12991     12994     12995
     12991     12994     12996     12991     12994     12997     12992     12991     12993
     12992     12991     12994     12993     12991     12994     12994     12997     12998
     12994     12997     12999     12994     12997     13000     12995     12994     12996
     12995     12994     12997     12996     12994     12997     12997     13000     13001
     12997     13000     13002     12997     13000     13003     12998     12997     12999
     12998     12997     13000     12999     12997     13000     13000     13003     13004
     13000     13003     13005     13001     13000     13002     13001     13000     13003
     13002     13000     13003     13003     13005     13006     13003     13005     13007
     13004     13003     13005     13005     13007     13008     13005     13007     13009
     13005     13007     13010     13006     13005     13007     13007     13010     13011
     13007     13010     13012     13007     13010     13013     13008     13007     13009
     13008     13007     13010     13009     13007     13010     13010     13013     13014
     13010     13013     13015     13010     13013     13016     13011     13010     13012
     13011     13010     13013     13012     13010     13013     13013     13016     13017
     13013     13016     13018     13013     13016     13019     13014     13013     13015
     13014     13013     13016     13015     13013     13016     13016     13019     13020
     13016     13019     13021     13016     13019     13022     13017     13016     13018
     13017     13016     13019     13018     13016     13019     13019     13022     13023
     13019     13022     13024     13019     13022     13025     13020     13019     13021
     13020     13019     13022     13021     13019     13022     13023     13022     13024
     13023     13022     13025     13024     13022     13025     13026     13029     13030
     13026     13029     13031     13026     13029     13032     13027     13026     13028
     13027     13026     13029     13028     13026     13029     13029     13032     13033
     13029     13032     13034     13029     13032     13035     13030     13029     13031
     13030     13029     13032     13031     13029     13032     13032     13035     13036
     13032     13035     13037     13032     13035     13038     13033     13032     13034
     13033     13032     13035     13034     13032     13035     13035     13038     13039
     13035     13038     13040     13035     13038     13041     13036     13035     13037
     13036     13035     13038     13037     13035     13038     13038     13041     13042
     13038     13041     13043     13038     13041     13044     13039     13038     13040
     13039     13038     13041     13040     13038     13041     13041     13044     13045
     13041     13044     13046     13041     13044     13047     13042     13041     13043
     13042     13041     13044     13043     13041     13044     13044     13047     13048
     13044     13047     13049     13044     13047     13050     13045     13044     13046
     13045     13044     13047     13046     13044     13047     13047     13050     13051
     13047     13050     13052     13047     13050     13053     13048     13047     13049
     13048     13047     13050     13049     13047     13050     13050     13053     13054
     13050     13053     13055     13050     13053     13056     13051     13050     13052
     13051     13050     13053     13052     13050     13053     13053     13056     13057
     13053     13056     13058     13053     13056     13059     13054     13053     13055
     13054     13053     13056     13055     13053     13056     13056     13059     13060
     13056     13059     13061     13056     13059     13062     13057     13056     13058
     13057     13056     13059     13058     13056     13059     13059     13062     13063
     13059     13062     13064     13059     13062     13065     13060     13059     13061
     13060     13059     13062     13061     13059     13062     13062     13065     13066
     13062     13065     13067     13062     13065     13068     13063     13062     13064
     13063     13062     13065     13064     13062     13065     13066     13065     13067
     13066     13065     13068     13067     13065     13068     13069     13072     13073
     13069     13074     13075     13069     13074     13076     13069     13074     13078
     13070     13069     13071     13070     13069     13072     13070     13069     13074
     13071     13069     13072     13071     13069     13074     13072     13069     13074
     13074     13076     13077     13074     13078     13079     13074     13078     13080
     13074     13078     13085     13075     13074     13076     13075     13074     13078
     13076     13074     13078     13078     13085     13081     13079     13078     13080
     13079     13078     13085     13080     13078     13085     13081     13084     13086
     13082     13081     13083     13082     13081     13084     13082     13081     13085
     13083     13081     13084     13083     13081     13085     13084     13081     13085
     13084     13086     13087     13084     13086     13088     13084     13086     13089
     13086     13089     13090     13086     13089     13091     13086     13089     13097
     13087     13086     13088     13087     13086     13089     13088     13086     13089
     13089     13091     13092     13089     13097     13098     13089     13097     13099
     13089     13097     13100     13090     13089     13091     13090     13089     13097
     13091     13089     13097     13091     13092     13093     13091     13092     13094
     13092     13094     13095     13092     13094     13096     13092     13094     13106
     13093     13092     13094     13094     13106     13107     13094     13106     13108
     13094     13106     13109     13095     13094     13096     13095     13094     13106
     13096     13094     13106     13097     13100     13101     13098     13097     13099
     13098     13097     13100     13099     13097     13100     13100     13101     13102
     13100     13101     13103     13101     13103     13104     13101     13103     13105
     13101     13103     13147     13102     13101     13103     13103     13147     13148
     13103     13147     13149     13103     13147     13150     13104     13103     13105
     13104     13103     13147     13105     13103     13147     13106     13109     13110
     13106     13109     13111     13106     13109     13112     13107     13106     13108
     13107     13106     13109     13108     13106     13109     13109     13112     13113
     13109     13112     13114     13109     13112     13115     13110     13109     13111
     13110     13109     13112     13111     13109     13112     13112     13115     13116
     13112     13115     13117     13112     13115     13118     13113     13112     13114
     13113     13112     13115     13114     13112     13115     13115     13118     13119
     13115     13118     13120     13115     13118     13121     13116     13115     13117
     13116     13115     13118     13117     13115     13118     13118     13121     13122
     13118     13121     13123     13118     13121     13124     13119     13118     13120
     13119     13118     13121     13120     13118     13121     13121     13124     13125
     13121     13124     13126     13122     13121     13123     13122     13121     13124
     13123     13121     13124     13124     13126     13127     13124     13126     13128
     13125     13124     13126     13126     13128     13129     13126     13128     13130
     13126     13128     13131     13127     13126     13128     13128     13131     13132
     13128     13131     13133     13128     13131     13134     13129     13128     13130
     13129     13128     13131     13130     13128     13131     13131     13134     13135
     13131     13134     13136     13131     13134     13137     13132     13131     13133
     13132     13131     13134     13133     13131     13134     13134     13137     13138
     13134     13137     13139     13134     13137     13140     13135     13134     13136
     13135     13134     13137     13136     13134     13137     13137     13140     13141
     13137     13140     13142     13137     13140     13143     13138     13137     13139
     13138     13137     13140     13139     13137     13140     13140     13143     13144
     13140     13143     13145     13140     13143     13146     13141     13140     13142
     13141     13140     13143     13142     13140     13143     13144     13143     13145
     13144     13143     13146     13145     13143     13146     13147     13150     13151
     13147     13150     13152     13147     13150     13153     13148     13147     13149
     13148     13147     13150     13149     13147     13150     13150     13153     13154
     13150     13153     13155     13150     13153     13156     13151     13150     13152
     13151     13150     13153     13152     13150     13153     13153     13156     13157
     13153     13156     13158     13153     13156     13159     13154     13153     13155
     13154     13153     13156     13155     13153     13156     13156     13159     13160
     13156     13159     13161     13156     13159     13162     13157     13156     13158
     13157     13156     13159     13158     13156     13159     13159     13162     13163
     13159     13162     13164     13159     13162     13165     13160     13159     13161
     13160     13159     13162     13161     13159     13162     13162     13165     13166
     13162     13165     13167     13162     13165     13168     13163     13162     13164
     13163     13162     13165     13164     13162     13165     13165     13168     13169
     13165     13168     13170     13165     13168     13171     13166     13165     13167
     13166     13165     13168     13167     13165     13168     13168     13171     13172
     13168     13171     13173     13168     13171     13174     13169     13168     13170
     13169     13168     13171     13170     13168     13171     13171     13174     13175
     13171     13174     13176     13171     13174     13177     13172     13171     13173
     13172     13171     13174     13173     13171     13174     13174     13177     13178
     13174     13177     13179     13174     13177     13180     13175     13174     13176
     13175     13174     13177     13176     13174     13177     13177     13180     13181
     13177     13180     13182     13177     13180     13183     13178     13177     13179
     13178     13177     13180     13179     13177     13180     13180     13183     13184
     13180     13183     13185     13180     13183     13186     13181     13180     13182
     13181     13180     13183     13182     13180     13183     13183     13186     13187
     13183     13186     13188     13183     13186     13189     13184     13183     13185
     13184     13183     13186     13185     13183     13186     13187     13186     13188
     13187     13186     13189     13188     13186     13189     13190     13194     13195
     13190     13194     13196     13190     13194     13197     13191     13190     13192
     13191     13190     13193     13191     13190     13194     13192     13190     13193
     13192     13190     13194     13193     13190     13194     13194     13197     13198
     13194     13197     13199     13194     13197     13204     13195     13194     13196
     13195     13194     13197     13196     13194     13197     13197     13204     13200
     13198     13197     13199     13198     13197     13204     13199     13197     13204
     13200     13203     13205     13201     13200     13202     13201     13200     13203
     13201     13200     13204     13202     13200     13203     13202     13200     13204
     13203     13200     13204     13203     13205     13206     13203     13205     13207
     13203     13205     13208     13205     13208     13209     13205     13208     13210
     13205     13208     13216     13206     13205     13207     13206     13205     13208
     13207     13205     13208     13208     13210     13211     13208     13216     13217
     13208     13216     13218     13208     13216     13219     13209     13208     13210
     13209     13208     13216     13210     13208     13216     13210     13211     13212
     13210     13211     13213     13211     13213     13214     13211     13213     13215
     13211     13213     13225     13212     13211     13213     13213     13225     13226
     13213     13225     13227     13213     13225     13228     13214     13213     13215
     13214     13213     13225     13215     13213     13225     13216     13219     13220
     13217     13216     13218     13217     13216     13219     13218     13216     13219
     13219     13220     13221     13219     13220     13222     13220     13222     13223
     13220     13222     13224     13220     13222     13272     13221     13220     13222
     13222     13272     13273     13222     13272     13274     13222     13272     13275
     13223     13222     13224     13223     13222     13272     13224     13222     13272
     13225     13228     13229     13225     13228     13230     13225     13228     13231
     13226     13225     13227     13226     13225     13228     13227     13225     13228
     13228     13231     13232     13228     13231     13233     13228     13231     13234
     13229     13228     13230     13229     13228     13231     13230     13228     13231
     13231     13234     13235     13231     13234     13236     13231     13234     13237
     13232     13231     13233     13232     13231     13234     13233     13231     13234
     13234     13237     13238     13234     13237     13239     13234     13237     13240
     13235     13234     13236     13235     13234     13237     13236     13234     13237
     13237     13240     13241     13237     13240     13242     13237     13240     13243
     13238     13237     13239     13238     13237     13240     13239     13237     13240
     13240     13243     13244     13240     13243     13245     13241     13240     13242
     13241     13240     13243     13242     13240     13243     13243     13245     13246
     13243     13245     13247     13244     13243     13245     13245     13247     13248
     13245     13247     13249     13245     13247     13250     13246     13245     13247
     13247     13250     13251     13247     13250     13252     13247     13250     13253
     13248     13247     13249     13248     13247     13250     13249     13247     13250
     13250     13253     13254     13250     13253     13255     13250     13253     13256
     13251     13250     13252     13251     13250     13253     13252     13250     13253
     13253     13256     13257     13253     13256     13258     13253     13256     13259
     13254     13253     13255     13254     13253     13256     13255     13253     13256
     13256     13259     13260     13256     13259     13261     13256     13259     13262
     13257     13256     13258     13257     13256     13259     13258     13256     13259
     13259     13262     13263     13259     13262     13264     13259     13262     13265
     13260     13259     13261     13260     13259     13262     13261     13259     13262
     13262     13265     13266     13262     13265     13267     13262     13265     13268
     13263     13262     13264     13263     13262     13265     13264     13262     13265
     13265     13268     13269     13265     13268     13270     13265     13268     13271
     13266     13265     13267     13266     13265     13268     13267     13265     13268
     13269     13268     13270     13269     13268     13271     13270     13268     13271
     13272     13275     13276     13272     13275     13277     13272     13275     13278
     13273     13272     13274     13273     13272     13275     13274     13272     13275
     13275     13278     13279     13275     13278     13280     13275     13278     13281
     13276     13275     13277     13276     13275     13278     13277     13275     13278
     13278     13281     13282     13278     13281     13283     13278     13281     13284
     13279     13278     13280     13279     13278     13281     13280     13278     13281
     13281     13284     13285     13281     13284     13286     13281     13284     13287
     13282     13281     13283     13282     13281     13284     13283     13281     13284
     13284     13287     13288     13284     13287     13289     13284     13287     13290
     13285     13284     13286     13285     13284     13287     13286     13284     13287
     13287     13290     13291     13287     13290     13292     13287     13290     13293
     13288     13287     13289     13288     13287     13290     13289     13287     13290
     13290     13293     13294     13290     13293     13295     13290     13293     13296
     13291     13290     13292     13291     13290     13293     13292     13290     13293
     13293     13296     13297     13293     13296     13298     13293     13296     13299
     13294     13293     13295     13294     13293     13296     13295     13293     13296
     13296     13299     13300     13296     13299     13301     13296     13299     13302
     13297     13296     13298     13297     13296     13299     13298     13296     13299
     13299     13302     13303     13299     13302     13304     13299     13302     13305
     13300     13299     13301     13300     13299     13302     13301     13299     13302
     13302     13305     13306     13302     13305     13307     13302     13305     13308
     13303     13302     13304     13303     13302     13305     13304     13302     13305
     13305     13308     13309     13305     13308     13310     13305     13308     13311
     13306     13305     13307     13306     13305     13308     13307     13305     13308
     13308     13311     13312     13308     13311     13313     13308     13311     13314
     13309     13308     13310     13309     13308     13311     13310     13308     13311
     13312     13311     13313     13312     13311     13314     13313     13311     13314
     13315     13319     13320     13315     13319     13321     13315     13319     13322
     13316     13315     13317     13316     13315     13318     13316     13315     13319
     13317     13315     13318     13317     13315     13319     13318     13315     13319
     13319     13322     13323     13319     13322     13324     13319     13322     13329
     13320     13319     13321     13320     13319     13322     13321     13319     13322
     13322     13329     13325     13323     13322     13324     13323     13322     13329
     13324     13322     13329     13325     13328     13330     13326     13325     13327
     13326     13325     13328     13326     13325     13329     13327     13325     13328
     13327     13325     13329     13328     13325     13329     13328     13330     13331
     13328     13330     13332     13328     13330     13333     13330     13333     13334
     13330     13333     13335     13330     13333     13341     13331     13330     13332
     13331     13330     13333     13332     13330     13333     13333     13335     13336
     13333     13341     13342     13333     13341     13343     13333     13341     13344
     13334     13333     13335     13334     13333     13341     13335     13333     13341
     13335     13336     13337     13335     13336     13338     13336     13338     13339
     13336     13338     13340     13336     13338     13350     13337     13336     13338
     13338     13350     13351     13338     13350     13352     13338     13350     13353
     13339     13338     13340     13339     13338     13350     13340     13338     13350
     13341     13344     13345     13342     13341     13343     13342     13341     13344
     13343     13341     13344     13344     13345     13346     13344     13345     13347
     13345     13347     13348     13345     13347     13349     13345     13347     13394
     13346     13345     13347     13347     13394     13395     13347     13394     13396
     13347     13394     13397     13348     13347     13349     13348     13347     13394
     13349     13347     13394     13350     13353     13354     13350     13353     13355
     13350     13353     13356     13351     13350     13352     13351     13350     13353
     13352     13350     13353     13353     13356     13357     13353     13356     13358
     13353     13356     13359     13354     13353     13355     13354     13353     13356
     13355     13353     13356     13356     13359     13360     13356     13359     13361
     13356     13359     13362     13357     13356     13358     13357     13356     13359
     13358     13356     13359     13359     13362     13363     13359     13362     13364
     13359     13362     13365     13360     13359     13361     13360     13359     13362
     13361     13359     13362     13362     13365     13366     13362     13365     13367
     13362     13365     13368     13363     13362     13364     13363     13362     13365
     13364     13362     13365     13365     13368     13369     13365     13368     13370
     13365     13368     13373     13366     13365     13367     13366     13365     13368
     13367     13365     13368     13368     13370     13371     13368     13370     13372
     13368     13370     13373     13368     13373     13370     13368     13373     13374
     13368     13373     13375     13369     13368     13370     13369     13368     13373
     13370     13368     13373     13370     13373     13374     13370     13373     13375
     13371     13370     13372     13371     13370     13373     13372     13370     13373
     13373     13375     13376     13373     13375     13377     13373     13375     13378
     13374     13373     13375     13375     13378     13379     13375     13378     13380
     13375     13378     13381     13376     13375     13377     13376     13375     13378
     13377     13375     13378     13378     13381     13382     13378     13381     13383
     13378     13381     13384     13379     13378     13380     13379     13378     13381
     13380     13378     13381     13381     13384     13385     13381     13384     13386
     13381     13384     13387     13382     13381     13383     13382     13381     13384
     13383     13381     13384     13384     13387     13388     13384     13387     13389
     13384     13387     13390     13385     13384     13386     13385     13384     13387
     13386     13384     13387     13387     13390     13391     13387     13390     13392
     13387     13390     13393     13388     13387     13389     13388     13387     13390
     13389     13387     13390     13391     13390     13392     13391     13390     13393
     13392     13390     13393     13394     13397     13398     13394     13397     13399
     13394     13397     13400     13395     13394     13396     13395     13394     13397
     13396     13394     13397     13397     13400     13401     13397     13400     13402
     13397     13400     13403     13398     13397     13399     13398     13397     13400
     13399     13397     13400     13400     13403     13404     13400     13403     13405
     13400     13403     13406     13401     13400     13402     13401     13400     13403
     13402     13400     13403     13403     13406     13407     13403     13406     13408
     13403     13406     13409     13404     13403     13405     13404     13403     13406
     13405     13403     13406     13406     13409     13410     13406     13409     13411
     13406     13409     13412     13407     13406     13408     13407     13406     13409
     13408     13406     13409     13409     13412     13413     13409     13412     13414
     13409     13412     13415     13410     13409     13411     13410     13409     13412
     13411     13409     13412     13412     13415     13416     13412     13415     13417
     13412     13415     13418     13413     13412     13414     13413     13412     13415
     13414     13412     13415     13415     13418     13419     13415     13418     13420
     13415     13418     13421     13416     13415     13417     13416     13415     13418
     13417     13415     13418     13418     13421     13422     13418     13421     13423
     13418     13421     13424     13419     13418     13420     13419     13418     13421
     13420     13418     13421     13421     13424     13425     13421     13424     13426
     13421     13424     13427     13422     13421     13423     13422     13421     13424
     13423     13421     13424     13424     13427     13428     13424     13427     13429
     13424     13427     13430     13425     13424     13426     13425     13424     13427
     13426     13424     13427     13427     13430     13431     13427     13430     13432
     13427     13430     13433     13428     13427     13429     13428     13427     13430
     13429     13427     13430     13430     13433     13434     13430     13433     13435
     13430     13433     13436     13431     13430     13432     13431     13430     13433
     13432     13430     13433     13434     13433     13435     13434     13433     13436
     13435     13433     13436     13437     13441     13442     13437     13441     13443
     13437     13441     13444     13438     13437     13439     13438     13437     13440
     13438     13437     13441     13439     13437     13440     13439     13437     13441
     13440     13437     13441     13441     13444     13445     13441     13444     13446
     13441     13444     13451     13442     13441     13443     13442     13441     13444
     13443     13441     13444     13444     13451     13447     13445     13444     13446
     13445     13444     13451     13446     13444     13451     13447     13450     13452
     13448     13447     13449     13448     13447     13450     13448     13447     13451
     13449     13447     13450     13449     13447     13451     13450     13447     13451
     13450     13452     13453     13450     13452     13454     13450     13452     13455
     13452     13455     13456     13452     13455     13457     13452     13455     13463
     13453     13452     13454     13453     13452     13455     13454     13452     13455
     13455     13457     13458     13455     13463     13464     13455     13463     13465
     13455     13463     13466     13456     13455     13457     13456     13455     13463
     13457     13455     13463     13457     13458     13459     13457     13458     13460
     13458     13460     13461     13458     13460     13462     13458     13460     13472
     13459     13458     13460     13460     13472     13473     13460     13472     13474
     13460     13472     13475     13461     13460     13462     13461     13460     13472
     13462     13460     13472     13463     13466     13467     13464     13463     13465
     13464     13463     13466     13465     13463     13466     13466     13467     13468
     13466     13467     13469     13467     13469     13470     13467     13469     13471
     13467     13469     13519     13468     13467     13469     13469     13519     13520
     13469     13519     13521     13469     13519     13522     13470     13469     13471
     13470     13469     13519     13471     13469     13519     13472     13475     13476
     13472     13475     13477     13472     13475     13478     13473     13472     13474
     13473     13472     13475     13474     13472     13475     13475     13478     13479
     13475     13478     13480     13475     13478     13481     13476     13475     13477
     13476     13475     13478     13477     13475     13478     13478     13481     13482
     13478     13481     13483     13478     13481     13484     13479     13478     13480
     13479     13478     13481     13480     13478     13481     13481     13484     13485
     13481     13484     13486     13481     13484     13487     13482     13481     13483
     13482     13481     13484     13483     13481     13484     13484     13487     13488
     13484     13487     13489     13484     13487     13490     13485     13484     13486
     13485     13484     13487     13486     13484     13487     13487     13490     13491
     13487     13490     13492     13488     13487     13489     13488     13487     13490
     13489     13487     13490     13490     13492     13493     13490     13492     13494
     13491     13490     13492     13492     13494     13495     13492     13494     13496
     13492     13494     13497     13493     13492     13494     13494     13497     13498
     13494     13497     13499     13494     13497     13500     13495     13494     13496
     13495     13494     13497     13496     13494     13497     13497     13500     13501
     13497     13500     13502     13497     13500     13503     13498     13497     13499
     13498     13497     13500     13499     13497     13500     13500     13503     13504
     13500     13503     13505     13500     13503     13506     13501     13500     13502
     13501     13500     13503     13502     13500     13503     13503     13506     13507
     13503     13506     13508     13503     13506     13509     13504     13503     13505
     13504     13503     13506     13505     13503     13506     13506     13509     13510
     13506     13509     13511     13506     13509     13512     13507     13506     13508
     13507     13506     13509     13508     13506     13509     13509     13512     13513
     13509     13512     13514     13509     13512     13515     13510     13509     13511
     13510     13509     13512     13511     13509     13512     13512     13515     13516
     13512     13515     13517     13512     13515     13518     13513     13512     13514
     13513     13512     13515     13514     13512     13515     13516     13515     13517
     13516     13515     13518     13517     13515     13518     13519     13522     13523
     13519     13522     13524     13519     13522     13525     13520     13519     13521
     13520     13519     13522     13521     13519     13522     13522     13525     13526
     13522     13525     13527     13522     13525     13528     13523     13522     13524
     13523     13522     13525     13524     13522     13525     13525     13528     13529
     13525     13528     13530     13525     13528     13531     13526     13525     13527
     13526     13525     13528     13527     13525     13528     13528     13531     13532
     13528     13531     13533     13528     13531     13534     13529     13528     13530
     13529     13528     13531     13530     13528     13531     13531     13534     13535
     13531     13534     13536     13531     13534     13537     13532     13531     13533
     13532     13531     13534     13533     13531     13534     13534     13537     13538
     13534     13537     13539     13534     13537     13540     13535     13534     13536
     13535     13534     13537     13536     13534     13537     13537     13540     13541
     13537     13540     13542     13537     13540     13543     13538     13537     13539
     13538     13537     13540     13539     13537     13540     13540     13543     13544
     13540     13543     13545     13540     13543     13546     13541     13540     13542
     13541     13540     13543     13542     13540     13543     13543     13546     13547
     13543     13546     13548     13543     13546     13549     13544     13543     13545
     13544     13543     13546     13545     13543     13546     13546     13549     13550
     13546     13549     13551     13546     13549     13552     13547     13546     13548
     13547     13546     13549     13548     13546     13549     13549     13552     13553
     13549     13552     13554     13549     13552     13555     13550     13549     13551
     13550     13549     13552     13551     13549     13552     13552     13555     13556
     13552     13555     13557     13552     13555     13558     13553     13552     13554
     13553     13552     13555     13554     13552     13555     13555     13558     13559
     13555     13558     13560     13555     13558     13561     13556     13555     13557
     13556     13555     13558     13557     13555     13558     13559     13558     13560
     13559     13558     13561     13560     13558     13561     13562     13566     13567
     13562     13566     13568     13562     13566     13569     13563     13562     13564
     13563     13562     13565     13563     13562     13566     13564     13562     13565
     13564     13562     13566     13565     13562     13566     13566     13569     13570
     13566     13569     13571     13566     13569     13576     13567     13566     13568
     13567     13566     13569     13568     13566     13569     13569     13576     13572
     13570     13569     13571     13570     13569     13576     13571     13569     13576
     13572     13575     13577     13573     13572     13574     13573     13572     13575
     13573     13572     13576     13574     13572     13575     13574     13572     13576
     13575     13572     13576     13575     13577     13578     13575     13577     13579
     13575     13577     13580     13577     13580     13581     13577     13580     13582
     13577     13580     13588     13578     13577     13579     13578     13577     13580
     13579     13577     13580     13580     13582     13583     13580     13588     13589
     13580     13588     13590     13580     13588     13591     13581     13580     13582
     13581     13580     13588     13582     13580     13588     13582     13583     13584
     13582     13583     13585     13583     13585     13586     13583     13585     13587
     13583     13585     13597     13584     13583     13585     13585     13597     13598
     13585     13597     13599     13585     13597     13600     13586     13585     13587
     13586     13585     13597     13587     13585     13597     13588     13591     13592
     13589     13588     13590     13589     13588     13591     13590     13588     13591
     13591     13592     13593     13591     13592     13594     13592     13594     13595
     13592     13594     13596     13592     13594     13641     13593     13592     13594
     13594     13641     13642     13594     13641     13643     13594     13641     13644
     13595     13594     13596     13595     13594     13641     13596     13594     13641
     13597     13600     13601     13597     13600     13602     13597     13600     13603
     13598     13597     13599     13598     13597     13600     13599     13597     13600
     13600     13603     13604     13600     13603     13605     13600     13603     13606
     13601     13600     13602     13601     13600     13603     13602     13600     13603
     13603     13606     13607     13603     13606     13608     13603     13606     13609
     13604     13603     13605     13604     13603     13606     13605     13603     13606
     13606     13609     13610     13606     13609     13611     13606     13609     13612
     13607     13606     13608     13607     13606     13609     13608     13606     13609
     13609     13612     13613     13609     13612     13614     13609     13612     13615
     13610     13609     13611     13610     13609     13612     13611     13609     13612
     13612     13615     13616     13612     13615     13617     13612     13615     13620
     13613     13612     13614     13613     13612     13615     13614     13612     13615
     13615     13617     13618     13615     13617     13619     13615     13617     13620
     13615     13620     13617     13615     13620     13621     13615     13620     13622
     13616     13615     13617     13616     13615     13620     13617     13615     13620
     13617     13620     13621     13617     13620     13622     13618     13617     13619
     13618     13617     13620     13619     13617     13620     13620     13622     13623
     13620     13622     13624     13620     13622     13625     13621     13620     13622
     13622     13625     13626     13622     13625     13627     13622     13625     13628
     13623     13622     13624     13623     13622     13625     13624     13622     13625
     13625     13628     13629     13625     13628     13630     13625     13628     13631
     13626     13625     13627     13626     13625     13628     13627     13625     13628
     13628     13631     13632     13628     13631     13633     13628     13631     13634
     13629     13628     13630     13629     13628     13631     13630     13628     13631
     13631     13634     13635     13631     13634     13636     13631     13634     13637
     13632     13631     13633     13632     13631     13634     13633     13631     13634
     13634     13637     13638     13634     13637     13639     13634     13637     13640
     13635     13634     13636     13635     13634     13637     13636     13634     13637
     13638     13637     13639     13638     13637     13640     13639     13637     13640
     13641     13644     13645     13641     13644     13646     13641     13644     13647
     13642     13641     13643     13642     13641     13644     13643     13641     13644
     13644     13647     13648     13644     13647     13649     13644     13647     13650
     13645     13644     13646     13645     13644     13647     13646     13644     13647
     13647     13650     13651     13647     13650     13652     13647     13650     13653
     13648     13647     13649     13648     13647     13650     13649     13647     13650
     13650     13653     13654     13650     13653     13655     13650     13653     13656
     13651     13650     13652     13651     13650     13653     13652     13650     13653
     13653     13656     13657     13653     13656     13658     13653     13656     13659
     13654     13653     13655     13654     13653     13656     13655     13653     13656
     13656     13659     13660     13656     13659     13661     13656     13659     13662
     13657     13656     13658     13657     13656     13659     13658     13656     13659
     13659     13662     13663     13659     13662     13664     13659     13662     13665
     13660     13659     13661     13660     13659     13662     13661     13659     13662
     13662     13665     13666     13662     13665     13667     13662     13665     13668
     13663     13662     13664     13663     13662     13665     13664     13662     13665
     13665     13668     13669     13665     13668     13670     13665     13668     13671
     13666     13665     13667     13666     13665     13668     13667     13665     13668
     13668     13671     13672     13668     13671     13673     13668     13671     13674
     13669     13668     13670     13669     13668     13671     13670     13668     13671
     13671     13674     13675     13671     13674     13676     13671     13674     13677
     13672     13671     13673     13672     13671     13674     13673     13671     13674
     13674     13677     13678     13674     13677     13679     13674     13677     13680
     13675     13674     13676     13675     13674     13677     13676     13674     13677
     13677     13680     13681     13677     13680     13682     13677     13680     13683
     13678     13677     13679     13678     13677     13680     13679     13677     13680
     13681     13680     13682     13681     13680     13683     13682     13680     13683
     13684     13688     13689     13684     13688     13690     13684     13688     13691
     13685     13684     13686     13685     13684     13687     13685     13684     13688
     13686     13684     13687     13686     13684     13688     13687     13684     13688
     13688     13691     13692     13688     13691     13693     13688     13691     13698
     13689     13688     13690     13689     13688     13691     13690     13688     13691
     13691     13698     13694     13692     13691     13693     13692     13691     13698
     13693     13691     13698     13694     13697     13699     13695     13694     13696
     13695     13694     13697     13695     13694     13698     13696     13694     13697
     13696     13694     13698     13697     13694     13698     13697     13699     13700
     13697     13699     13701     13697     13699     13702     13699     13702     13703
     13699     13702     13704     13699     13702     13710     13700     13699     13701
     13700     13699     13702     13701     13699     13702     13702     13704     13705
     13702     13710     13711     13702     13710     13712     13702     13710     13713
     13703     13702     13704     13703     13702     13710     13704     13702     13710
     13704     13705     13706     13704     13705     13707     13705     13707     13708
     13705     13707     13709     13705     13707     13719     13706     13705     13707
     13707     13719     13720     13707     13719     13721     13707     13719     13722
     13708     13707     13709     13708     13707     13719     13709     13707     13719
     13710     13713     13714     13711     13710     13712     13711     13710     13713
     13712     13710     13713     13713     13714     13715     13713     13714     13716
     13714     13716     13717     13714     13716     13718     13714     13716     13763
     13715     13714     13716     13716     13763     13764     13716     13763     13765
     13716     13763     13766     13717     13716     13718     13717     13716     13763
     13718     13716     13763     13719     13722     13723     13719     13722     13724
     13719     13722     13725     13720     13719     13721     13720     13719     13722
     13721     13719     13722     13722     13725     13726     13722     13725     13727
     13722     13725     13728     13723     13722     13724     13723     13722     13725
     13724     13722     13725     13725     13728     13729     13725     13728     13730
     13725     13728     13731     13726     13725     13727     13726     13725     13728
     13727     13725     13728     13728     13731     13732     13728     13731     13733
     13728     13731     13734     13729     13728     13730     13729     13728     13731
     13730     13728     13731     13731     13734     13735     13731     13734     13736
     13731     13734     13737     13732     13731     13733     13732     13731     13734
     13733     13731     13734     13734     13737     13738     13734     13737     13739
     13734     13737     13742     13735     13734     13736     13735     13734     13737
     13736     13734     13737     13737     13739     13740     13737     13739     13741
     13737     13739     13742     13737     13742     13739     13737     13742     13743
     13737     13742     13744     13738     13737     13739     13738     13737     13742
     13739     13737     13742     13739     13742     13743     13739     13742     13744
     13740     13739     13741     13740     13739     13742     13741     13739     13742
     13742     13744     13745     13742     13744     13746     13742     13744     13747
     13743     13742     13744     13744     13747     13748     13744     13747     13749
     13744     13747     13750     13745     13744     13746     13745     13744     13747
     13746     13744     13747     13747     13750     13751     13747     13750     13752
     13747     13750     13753     13748     13747     13749     13748     13747     13750
     13749     13747     13750     13750     13753     13754     13750     13753     13755
     13750     13753     13756     13751     13750     13752     13751     13750     13753
     13752     13750     13753     13753     13756     13757     13753     13756     13758
     13753     13756     13759     13754     13753     13755     13754     13753     13756
     13755     13753     13756     13756     13759     13760     13756     13759     13761
     13756     13759     13762     13757     13756     13758     13757     13756     13759
     13758     13756     13759     13760     13759     13761     13760     13759     13762
     13761     13759     13762     13763     13766     13767     13763     13766     13768
     13763     13766     13769     13764     13763     13765     13764     13763     13766
     13765     13763     13766     13766     13769     13770     13766     13769     13771
     13766     13769     13772     13767     13766     13768     13767     13766     13769
     13768     13766     13769     13769     13772     13773     13769     13772     13774
     13769     13772     13775     13770     13769     13771     13770     13769     13772
     13771     13769     13772     13772     13775     13776     13772     13775     13777
     13772     13775     13778     13773     13772     13774     13773     13772     13775
     13774     13772     13775     13775     13778     13779     13775     13778     13780
     13775     13778     13781     13776     13775     13777     13776     13775     13778
     13777     13775     13778     13778     13781     13782     13778     13781     13783
     13778     13781     13784     13779     13778     13780     13779     13778     13781
     13780     13778     13781     13781     13784     13785     13781     13784     13786
     13781     13784     13787     13782     13781     13783     13782     13781     13784
     13783     13781     13784     13784     13787     13788     13784     13787     13789
     13784     13787     13790     13785     13784     13786     13785     13784     13787
     13786     13784     13787     13787     13790     13791     13787     13790     13792
     13787     13790     13793     13788     13787     13789     13788     13787     13790
     13789     13787     13790     13790     13793     13794     13790     13793     13795
     13790     13793     13796     13791     13790     13792     13791     13790     13793
     13792     13790     13793     13793     13796     13797     13793     13796     13798
     13793     13796     13799     13794     13793     13795     13794     13793     13796
     13795     13793     13796     13796     13799     13800     13796     13799     13801
     13796     13799     13802     13797     13796     13798     13797     13796     13799
     13798     13796     13799     13799     13802     13803     13799     13802     13804
     13799     13802     13805     13800     13799     13801     13800     13799     13802
     13801     13799     13802     13803     13802     13804     13803     13802     13805
     13804     13802     13805     13806     13809     13810     13806     13811     13812
     13806     13811     13813     13806     13811     13815     13807     13806     13808
     13807     13806     13809     13807     13806     13811     13808     13806     13809
     13808     13806     13811     13809     13806     13811     13811     13813     13814
     13811     13815     13816     13811     13815     13817     13811     13815     13822
     13812     13811     13813     13812     13811     13815     13813     13811     13815
     13815     13822     13818     13816     13815     13817     13816     13815     13822
     13817     13815     13822     13818     13821     13823     13819     13818     13820
     13819     13818     13821     13819     13818     13822     13820     13818     13821
     13820     13818     13822     13821     13818     13822     13821     13823     13824
     13821     13823     13825     13821     13823     13826     13823     13826     13827
     13823     13826     13828     13823     13826     13834     13824     13823     13825
     13824     13823     13826     13825     13823     13826     13826     13828     13829
     13826     13834     13835     13826     13834     13836     13826     13834     13837
     13827     13826     13828     13827     13826     13834     13828     13826     13834
     13828     13829     13830     13828     13829     13831     13829     13831     13832
     13829     13831     13833     13829     13831     13843     13830     13829     13831
     13831     13843     13844     13831     13843     13845     13831     13843     13846
     13832     13831     13833     13832     13831     13843     13833     13831     13843
     13834     13837     13838     13835     13834     13836     13835     13834     13837
     13836     13834     13837     13837     13838     13839     13837     13838     13840
     13838     13840     13841     13838     13840     13842     13838     13840     13884
     13839     13838     13840     13840     13884     13885     13840     13884     13886
     13840     13884     13887     13841     13840     13842     13841     13840     13884
     13842     13840     13884     13843     13846     13847     13843     13846     13848
     13843     13846     13849     13844     13843     13845     13844     13843     13846
     13845     13843     13846     13846     13849     13850     13846     13849     13851
     13846     13849     13852     13847     13846     13848     13847     13846     13849
     13848     13846     13849     13849     13852     13853     13849     13852     13854
     13849     13852     13855     13850     13849     13851     13850     13849     13852
     13851     13849     13852     13852     13855     13856     13852     13855     13857
     13852     13855     13858     13853     13852     13854     13853     13852     13855
     13854     13852     13855     13855     13858     13859     13855     13858     13860
     13855     13858     13861     13856     13855     13857     13856     13855     13858
     13857     13855     13858     13858     13861     13862     13858     13861     13863
     13859     13858     13860     13859     13858     13861     13860     13858     13861
     13861     13863     13864     13861     13863     13865     13862     13861     13863
     13863     13865     13866     13863     13865     13867     13863     13865     13868
     13864     13863     13865     13865     13868     13869     13865     13868     13870
     13865     13868     13871     13866     13865     13867     13866     13865     13868
     13867     13865     13868     13868     13871     13872     13868     13871     13873
     13868     13871     13874     13869     13868     13870     13869     13868     13871
     13870     13868     13871     13871     13874     13875     13871     13874     13876
     13871     13874     13877     13872     13871     13873     13872     13871     13874
     13873     13871     13874     13874     13877     13878     13874     13877     13879
     13874     13877     13880     13875     13874     13876     13875     13874     13877
     13876     13874     13877     13877     13880     13881     13877     13880     13882
     13877     13880     13883     13878     13877     13879     13878     13877     13880
     13879     13877     13880     13881     13880     13882     13881     13880     13883
     13882     13880     13883     13884     13887     13888     13884     13887     13889
     13884     13887     13890     13885     13884     13886     13885     13884     13887
     13886     13884     13887     13887     13890     13891     13887     13890     13892
     13887     13890     13893     13888     13887     13889     13888     13887     13890
     13889     13887     13890     13890     13893     13894     13890     13893     13895
     13890     13893     13896     13891     13890     13892     13891     13890     13893
     13892     13890     13893     13893     13896     13897     13893     13896     13898
     13893     13896     13899     13894     13893     13895     13894     13893     13896
     13895     13893     13896     13896     13899     13900     13896     13899     13901
     13896     13899     13902     13897     13896     13898     13897     13896     13899
     13898     13896     13899     13899     13902     13903     13899     13902     13904
     13899     13902     13905     13900     13899     13901     13900     13899     13902
     13901     13899     13902     13902     13905     13906     13902     13905     13907
     13902     13905     13908     13903     13902     13904     13903     13902     13905
     13904     13902     13905     13905     13908     13909     13905     13908     13910
     13905     13908     13911     13906     13905     13907     13906     13905     13908
     13907     13905     13908     13908     13911     13912     13908     13911     13913
     13908     13911     13914     13909     13908     13910     13909     13908     13911
     13910     13908     13911     13911     13914     13915     13911     13914     13916
     13911     13914     13917     13912     13911     13913     13912     13911     13914
     13913     13911     13914     13914     13917     13918     13914     13917     13919
     13914     13917     13920     13915     13914     13916     13915     13914     13917
     13916     13914     13917     13917     13920     13921     13917     13920     13922
     13917     13920     13923     13918     13917     13919     13918     13917     13920
     13919     13917     13920     13920     13923     13924     13920     13923     13925
     13920     13923     13926     13921     13920     13922     13921     13920     13923
     13922     13920     13923     13924     13923     13925     13924     13923     13926
     13925     13923     13926     13927     13931     13932     13927     13931     13933
     13927     13931     13934     13928     13927     13929     13928     13927     13930
     13928     13927     13931     13929     13927     13930     13929     13927     13931
     13930     13927     13931     13931     13934     13935     13931     13934     13936
     13931     13934     13941     13932     13931     13933     13932     13931     13934
     13933     13931     13934     13934     13941     13937     13935     13934     13936
     13935     13934     13941     13936     13934     13941     13937     13940     13942
     13938     13937     13939     13938     13937     13940     13938     13937     13941
     13939     13937     13940     13939     13937     13941     13940     13937     13941
     13940     13942     13943     13940     13942     13944     13940     13942     13945
     13942     13945     13946     13942     13945     13947     13942     13945     13953
     13943     13942     13944     13943     13942     13945     13944     13942     13945
     13945     13947     13948     13945     13953     13954     13945     13953     13955
     13945     13953     13956     13946     13945     13947     13946     13945     13953
     13947     13945     13953     13947     13948     13949     13947     13948     13950
     13948     13950     13951     13948     13950     13952     13948     13950     13962
     13949     13948     13950     13950     13962     13963     13950     13962     13964
     13950     13962     13965     13951     13950     13952     13951     13950     13962
     13952     13950     13962     13953     13956     13957     13954     13953     13955
     13954     13953     13956     13955     13953     13956     13956     13957     13958
     13956     13957     13959     13957     13959     13960     13957     13959     13961
     13957     13959     14006     13958     13957     13959     13959     14006     14007
     13959     14006     14008     13959     14006     14009     13960     13959     13961
     13960     13959     14006     13961     13959     14006     13962     13965     13966
     13962     13965     13967     13962     13965     13968     13963     13962     13964
     13963     13962     13965     13964     13962     13965     13965     13968     13969
     13965     13968     13970     13965     13968     13971     13966     13965     13967
     13966     13965     13968     13967     13965     13968     13968     13971     13972
     13968     13971     13973     13968     13971     13974     13969     13968     13970
     13969     13968     13971     13970     13968     13971     13971     13974     13975
     13971     13974     13976     13971     13974     13977     13972     13971     13973
     13972     13971     13974     13973     13971     13974     13974     13977     13978
     13974     13977     13979     13974     13977     13980     13975     13974     13976
     13975     13974     13977     13976     13974     13977     13977     13980     13981
     13977     13980     13982     13977     13980     13985     13978     13977     13979
     13978     13977     13980     13979     13977     13980     13980     13982     13983
     13980     13982     13984     13980     13982     13985     13980     13985     13982
     13980     13985     13986     13980     13985     13987     13981     13980     13982
     13981     13980     13985     13982     13980     13985     13982     13985     13986
     13982     13985     13987     13983     13982     13984     13983     13982     13985
     13984     13982     13985     13985     13987     13988     13985     13987     13989
     13985     13987     13990     13986     13985     13987     13987     13990     13991
     13987     13990     13992     13987     13990     13993     13988     13987     13989
     13988     13987     13990     13989     13987     13990     13990     13993     13994
     13990     13993     13995     13990     13993     13996     13991     13990     13992
     13991     13990     13993     13992     13990     13993     13993     13996     13997
     13993     13996     13998     13993     13996     13999     13994     13993     13995
     13994     13993     13996     13995     13993     13996     13996     13999     14000
     13996     13999     14001     13996     13999     14002     13997     13996     13998
     13997     13996     13999     13998     13996     13999     13999     14002     14003
     13999     14002     14004     13999     14002     14005     14000     13999     14001
     14000     13999     14002     14001     13999     14002     14003     14002     14004
     14003     14002     14005     14004     14002     14005     14006     14009     14010
     14006     14009     14011     14006     14009     14012     14007     14006     14008
     14007     14006     14009     14008     14006     14009     14009     14012     14013
     14009     14012     14014     14009     14012     14015     14010     14009     14011
     14010     14009     14012     14011     14009     14012     14012     14015     14016
     14012     14015     14017     14012     14015     14018     14013     14012     14014
     14013     14012     14015     14014     14012     14015     14015     14018     14019
     14015     14018     14020     14015     14018     14021     14016     14015     14017
     14016     14015     14018     14017     14015     14018     14018     14021     14022
     14018     14021     14023     14018     14021     14024     14019     14018     14020
     14019     14018     14021     14020     14018     14021     14021     14024     14025
     14021     14024     14026     14021     14024     14027     14022     14021     14023
     14022     14021     14024     14023     14021     14024     14024     14027     14028
     14024     14027     14029     14024     14027     14030     14025     14024     14026
     14025     14024     14027     14026     14024     14027     14027     14030     14031
     14027     14030     14032     14027     14030     14033     14028     14027     14029
     14028     14027     14030     14029     14027     14030     14030     14033     14034
     14030     14033     14035     14030     14033     14036     14031     14030     14032
     14031     14030     14033     14032     14030     14033     14033     14036     14037
     14033     14036     14038     14033     14036     14039     14034     14033     14035
     14034     14033     14036     14035     14033     14036     14036     14039     14040
     14036     14039     14041     14036     14039     14042     14037     14036     14038
     14037     14036     14039     14038     14036     14039     14039     14042     14043
     14039     14042     14044     14039     14042     14045     14040     14039     14041
     14040     14039     14042     14041     14039     14042     14042     14045     14046
     14042     14045     14047     14042     14045     14048     14043     14042     14044
     14043     14042     14045     14044     14042     14045     14046     14045     14047
     14046     14045     14048     14047     14045     14048     14049     14053     14054
     14049     14053     14055     14049     14053     14056     14050     14049     14051
     14050     14049     14052     14050     14049     14053     14051     14049     14052
     14051     14049     14053     14052     14049     14053     14053     14056     14057
     14053     14056     14058     14053     14056     14063     14054     14053     14055
     14054     14053     14056     14055     14053     14056     14056     14063     14059
     14057     14056     14058     14057     14056     14063     14058     14056     14063
     14059     14062     14064     14060     14059     14061     14060     14059     14062
     14060     14059     14063     14061     14059     14062     14061     14059     14063
     14062     14059     14063     14062     14064     14065     14062     14064     14066
     14062     14064     14067     14064     14067     14068     14064     14067     14069
     14064     14067     14075     14065     14064     14066     14065     14064     14067
     14066     14064     14067     14067     14069     14070     14067     14075     14076
     14067     14075     14077     14067     14075     14078     14068     14067     14069
     14068     14067     14075     14069     14067     14075     14069     14070     14071
     14069     14070     14072     14070     14072     14073     14070     14072     14074
     14070     14072     14084     14071     14070     14072     14072     14084     14085
     14072     14084     14086     14072     14084     14087     14073     14072     14074
     14073     14072     14084     14074     14072     14084     14075     14078     14079
     14076     14075     14077     14076     14075     14078     14077     14075     14078
     14078     14079     14080     14078     14079     14081     14079     14081     14082
     14079     14081     14083     14079     14081     14128     14080     14079     14081
     14081     14128     14129     14081     14128     14130     14081     14128     14131
     14082     14081     14083     14082     14081     14128     14083     14081     14128
     14084     14087     14088     14084     14087     14089     14084     14087     14090
     14085     14084     14086     14085     14084     14087     14086     14084     14087
     14087     14090     14091     14087     14090     14092     14087     14090     14093
     14088     14087     14089     14088     14087     14090     14089     14087     14090
     14090     14093     14094     14090     14093     14095     14090     14093     14096
     14091     14090     14092     14091     14090     14093     14092     14090     14093
     14093     14096     14097     14093     14096     14098     14093     14096     14099
     14094     14093     14095     14094     14093     14096     14095     14093     14096
     14096     14099     14100     14096     14099     14101     14096     14099     14102
     14097     14096     14098     14097     14096     14099     14098     14096     14099
     14099     14102     14103     14099     14102     14104     14099     14102     14107
     14100     14099     14101     14100     14099     14102     14101     14099     14102
     14102     14104     14105     14102     14104     14106     14102     14104     14107
     14102     14107     14104     14102     14107     14108     14102     14107     14109
     14103     14102     14104     14103     14102     14107     14104     14102     14107
     14104     14107     14108     14104     14107     14109     14105     14104     14106
     14105     14104     14107     14106     14104     14107     14107     14109     14110
     14107     14109     14111     14107     14109     14112     14108     14107     14109
     14109     14112     14113     14109     14112     14114     14109     14112     14115
     14110     14109     14111     14110     14109     14112     14111     14109     14112
     14112     14115     14116     14112     14115     14117     14112     14115     14118
     14113     14112     14114     14113     14112     14115     14114     14112     14115
     14115     14118     14119     14115     14118     14120     14115     14118     14121
     14116     14115     14117     14116     14115     14118     14117     14115     14118
     14118     14121     14122     14118     14121     14123     14118     14121     14124
     14119     14118     14120     14119     14118     14121     14120     14118     14121
     14121     14124     14125     14121     14124     14126     14121     14124     14127
     14122     14121     14123     14122     14121     14124     14123     14121     14124
     14125     14124     14126     14125     14124     14127     14126     14124     14127
     14128     14131     14132     14128     14131     14133     14128     14131     14134
     14129     14128     14130     14129     14128     14131     14130     14128     14131
     14131     14134     14135     14131     14134     14136     14131     14134     14137
     14132     14131     14133     14132     14131     14134     14133     14131     14134
     14134     14137     14138     14134     14137     14139     14134     14137     14140
     14135     14134     14136     14135     14134     14137     14136     14134     14137
     14137     14140     14141     14137     14140     14142     14137     14140     14143
     14138     14137     14139     14138     14137     14140     14139     14137     14140
     14140     14143     14144     14140     14143     14145     14140     14143     14146
     14141     14140     14142     14141     14140     14143     14142     14140     14143
     14143     14146     14147     14143     14146     14148     14143     14146     14149
     14144     14143     14145     14144     14143     14146     14145     14143     14146
     14146     14149     14150     14146     14149     14151     14146     14149     14152
     14147     14146     14148     14147     14146     14149     14148     14146     14149
     14149     14152     14153     14149     14152     14154     14149     14152     14155
     14150     14149     14151     14150     14149     14152     14151     14149     14152
     14152     14155     14156     14152     14155     14157     14152     14155     14158
     14153     14152     14154     14153     14152     14155     14154     14152     14155
     14155     14158     14159     14155     14158     14160     14155     14158     14161
     14156     14155     14157     14156     14155     14158     14157     14155     14158
     14158     14161     14162     14158     14161     14163     14158     14161     14164
     14159     14158     14160     14159     14158     14161     14160     14158     14161
     14161     14164     14165     14161     14164     14166     14161     14164     14167
     14162     14161     14163     14162     14161     14164     14163     14161     14164
     14164     14167     14168     14164     14167     14169     14164     14167     14170
     14165     14164     14166     14165     14164     14167     14166     14164     14167
     14168     14167     14169     14168     14167     14170     14169     14167     14170
     14171     14175     14176     14171     14175     14177     14171     14175     14178
     14172     14171     14173     14172     14171     14174     14172     14171     14175
     14173     14171     14174     14173     14171     14175     14174     14171     14175
     14175     14178     14179     14175     14178     14180     14175     14178     14185
     14176     14175     14177     14176     14175     14178     14177     14175     14178
     14178     14185     14181     14179     14178     14180     14179     14178     14185
     14180     14178     14185     14181     14184     14186     14182     14181     14183
     14182     14181     14184     14182     14181     14185     14183     14181     14184
     14183     14181     14185     14184     14181     14185     14184     14186     14187
     14184     14186     14188     14184     14186     14189     14186     14189     14190
     14186     14189     14191     14186     14189     14197     14187     14186     14188
     14187     14186     14189     14188     14186     14189     14189     14191     14192
     14189     14197     14198     14189     14197     14199     14189     14197     14200
     14190     14189     14191     14190     14189     14197     14191     14189     14197
     14191     14192     14193     14191     14192     14194     14192     14194     14195
     14192     14194     14196     14192     14194     14206     14193     14192     14194
     14194     14206     14207     14194     14206     14208     14194     14206     14209
     14195     14194     14196     14195     14194     14206     14196     14194     14206
     14197     14200     14201     14198     14197     14199     14198     14197     14200
     14199     14197     14200     14200     14201     14202     14200     14201     14203
     14201     14203     14204     14201     14203     14205     14201     14203     14250
     14202     14201     14203     14203     14250     14251     14203     14250     14252
     14203     14250     14253     14204     14203     14205     14204     14203     14250
     14205     14203     14250     14206     14209     14210     14206     14209     14211
     14206     14209     14212     14207     14206     14208     14207     14206     14209
     14208     14206     14209     14209     14212     14213     14209     14212     14214
     14209     14212     14215     14210     14209     14211     14210     14209     14212
     14211     14209     14212     14212     14215     14216     14212     14215     14217
     14212     14215     14218     14213     14212     14214     14213     14212     14215
     14214     14212     14215     14215     14218     14219     14215     14218     14220
     14215     14218     14221     14216     14215     14217     14216     14215     14218
     14217     14215     14218     14218     14221     14222     14218     14221     14223
     14218     14221     14224     14219     14218     14220     14219     14218     14221
     14220     14218     14221     14221     14224     14225     14221     14224     14226
     14221     14224     14229     14222     14221     14223     14222     14221     14224
     14223     14221     14224     14224     14226     14227     14224     14226     14228
     14224     14226     14229     14224     14229     14226     14224     14229     14230
     14224     14229     14231     14225     14224     14226     14225     14224     14229
     14226     14224     14229     14226     14229     14230     14226     14229     14231
     14227     14226     14228     14227     14226     14229     14228     14226     14229
     14229     14231     14232     14229     14231     14233     14229     14231     14234
     14230     14229     14231     14231     14234     14235     14231     14234     14236
     14231     14234     14237     14232     14231     14233     14232     14231     14234
     14233     14231     14234     14234     14237     14238     14234     14237     14239
     14234     14237     14240     14235     14234     14236     14235     14234     14237
     14236     14234     14237     14237     14240     14241     14237     14240     14242
     14237     14240     14243     14238     14237     14239     14238     14237     14240
     14239     14237     14240     14240     14243     14244     14240     14243     14245
     14240     14243     14246     14241     14240     14242     14241     14240     14243
     14242     14240     14243     14243     14246     14247     14243     14246     14248
     14243     14246     14249     14244     14243     14245     14244     14243     14246
     14245     14243     14246     14247     14246     14248     14247     14246     14249
     14248     14246     14249     14250     14253     14254     14250     14253     14255
     14250     14253     14256     14251     14250     14252     14251     14250     14253
     14252     14250     14253     14253     14256     14257     14253     14256     14258
     14253     14256     14259     14254     14253     14255     14254     14253     14256
     14255     14253     14256     14256     14259     14260     14256     14259     14261
     14256     14259     14262     14257     14256     14258     14257     14256     14259
     14258     14256     14259     14259     14262     14263     14259     14262     14264
     14259     14262     14265     14260     14259     14261     14260     14259     14262
     14261     14259     14262     14262     14265     14266     14262     14265     14267
     14262     14265     14268     14263     14262     14264     14263     14262     14265
     14264     14262     14265     14265     14268     14269     14265     14268     14270
     14265     14268     14271     14266     14265     14267     14266     14265     14268
     14267     14265     14268     14268     14271     14272     14268     14271     14273
     14268     14271     14274     14269     14268     14270     14269     14268     14271
     14270     14268     14271     14271     14274     14275     14271     14274     14276
     14271     14274     14277     14272     14271     14273     14272     14271     14274
     14273     14271     14274     14274     14277     14278     14274     14277     14279
     14274     14277     14280     14275     14274     14276     14275     14274     14277
     14276     14274     14277     14277     14280     14281     14277     14280     14282
     14277     14280     14283     14278     14277     14279     14278     14277     14280
     14279     14277     14280     14280     14283     14284     14280     14283     14285
     14280     14283     14286     14281     14280     14282     14281     14280     14283
     14282     14280     14283     14283     14286     14287     14283     14286     14288
     14283     14286     14289     14284     14283     14285     14284     14283     14286
     14285     14283     14286     14286     14289     14290     14286     14289     14291
     14286     14289     14292     14287     14286     14288     14287     14286     14289
     14288     14286     14289     14290     14289     14291     14290     14289     14292
     14291     14289     14292     14293     14299     14296     14293     14304     14305
     14293     14304     14306     14293     14304     14308     14294     14293     14295
     14294     14293     14299     14294     14293     14304     14295     14293     14299
     14295     14293     14304     14296     14300     14301     14297     14296     14298
     14297     14296     14299     14297     14296     14300     14298     14296     14299
     14298     14296     14300     14299     14293     14304     14299     14296     14300
     14300     14301     14302     14300     14301     14303     14300     14301     14336
     14301     14336     14337     14301     14336     14338     14301     14336     14344
     14302     14301     14303     14302     14301     14336     14303     14301     14336
     14304     14306     14307     14304     14308     14309     14304     14308     14310
     14304     14308     14314     14305     14304     14306     14305     14304     14308
     14306     14304     14308     14308     14314     14311     14309     14308     14310
     14309     14308     14314     14310     14308     14314     14311     14315     14316
     14312     14311     14313     14312     14311     14314     14312     14311     14315
     14313     14311     14314     14313     14311     14315     14314     14311     14315
     14315     14316     14317     14315     14316     14318     14315     14316     14319
     14316     14319     14320     14316     14319     14321     14316     14319     14327
     14317     14316     14318     14317     14316     14319     14318     14316     14319
     14319     14321     14322     14319     14327     14328     14319     14327     14329
     14319     14327     14330     14320     14319     14321     14320     14319     14327
     14321     14319     14327     14321     14322     14323     14321     14322     14324
     14322     14324     14325     14322     14324     14326     14322     14324     14353
     14323     14322     14324     14324     14353     14354     14324     14353     14355
     14324     14353     14356     14325     14324     14326     14325     14324     14353
     14326     14324     14353     14327     14330     14331     14328     14327     14329
     14328     14327     14330     14329     14327     14330     14330     14331     14332
     14330     14331     14333     14331     14333     14334     14331     14333     14335
     14331     14333     14400     14332     14331     14333     14333     14400     14401
     14333     14400     14402     14333     14400     14403     14334     14333     14335
     14334     14333     14400     14335     14333     14400     14336     14338     14339
     14336     14344     14345     14336     14344     14346     14336     14344     14347
     14337     14336     14338     14337     14336     14344     14338     14336     14344
     14338     14339     14340     14338     14339     14341     14339     14341     14342
     14339     14341     14343     14339     14341     14443     14340     14339     14341
     14341     14443     14444     14341     14443     14445     14341     14443     14446
     14342     14341     14343     14342     14341     14443     14343     14341     14443
     14344     14347     14348     14345     14344     14346     14345     14344     14347
     14346     14344     14347     14347     14348     14349     14347     14348     14350
     14348     14350     14351     14348     14350     14352     14348     14350     14490
     14349     14348     14350     14350     14490     14491     14350     14490     14492
     14350     14490     14493     14351     14350     14352     14351     14350     14490
     14352     14350     14490     14353     14356     14357     14353     14356     14358
     14353     14356     14359     14354     14353     14355     14354     14353     14356
     14355     14353     14356     14356     14359     14360     14356     14359     14361
     14356     14359     14362     14357     14356     14358     14357     14356     14359
     14358     14356     14359     14359     14362     14363     14359     14362     14364
     14359     14362     14365     14360     14359     14361     14360     14359     14362
     14361     14359     14362     14362     14365     14366     14362     14365     14367
     14362     14365     14368     14363     14362     14364     14363     14362     14365
     14364     14362     14365     14365     14368     14369     14365     14368     14370
     14365     14368     14371     14366     14365     14367     14366     14365     14368
     14367     14365     14368     14368     14371     14372     14368     14371     14373
     14368     14371     14374     14369     14368     14370     14369     14368     14371
     14370     14368     14371     14371     14374     14375     14371     14374     14376
     14371     14374     14377     14372     14371     14373     14372     14371     14374
     14373     14371     14374     14374     14377     14378     14374     14377     14379
     14375     14374     14376     14375     14374     14377     14376     14374     14377
     14377     14379     14380     14377     14379     14381     14378     14377     14379
     14379     14381     14382     14379     14381     14383     14379     14381     14384
     14380     14379     14381     14381     14384     14385     14381     14384     14386
     14381     14384     14387     14382     14381     14383     14382     14381     14384
     14383     14381     14384     14384     14387     14388     14384     14387     14389
     14384     14387     14390     14385     14384     14386     14385     14384     14387
     14386     14384     14387     14387     14390     14391     14387     14390     14392
     14387     14390     14393     14388     14387     14389     14388     14387     14390
     14389     14387     14390     14390     14393     14394     14390     14393     14395
     14390     14393     14396     14391     14390     14392     14391     14390     14393
     14392     14390     14393     14393     14396     14397     14393     14396     14398
     14393     14396     14399     14394     14393     14395     14394     14393     14396
     14395     14393     14396     14397     14396     14398     14397     14396     14399
     14398     14396     14399     14400     14403     14404     14400     14403     14405
     14400     14403     14406     14401     14400     14402     14401     14400     14403
     14402     14400     14403     14403     14406     14407     14403     14406     14408
     14403     14406     14409     14404     14403     14405     14404     14403     14406
     14405     14403     14406     14406     14409     14410     14406     14409     14411
     14406     14409     14412     14407     14406     14408     14407     14406     14409
     14408     14406     14409     14409     14412     14413     14409     14412     14414
     14409     14412     14415     14410     14409     14411     14410     14409     14412
     14411     14409     14412     14412     14415     14416     14412     14415     14417
     14412     14415     14418     14413     14412     14414     14413     14412     14415
     14414     14412     14415     14415     14418     14419     14415     14418     14420
     14415     14418     14421     14416     14415     14417     14416     14415     14418
     14417     14415     14418     14418     14421     14422     14418     14421     14423
     14418     14421     14424     14419     14418     14420     14419     14418     14421
     14420     14418     14421     14421     14424     14425     14421     14424     14426
     14421     14424     14427     14422     14421     14423     14422     14421     14424
     14423     14421     14424     14424     14427     14428     14424     14427     14429
     14424     14427     14430     14425     14424     14426     14425     14424     14427
     14426     14424     14427     14427     14430     14431     14427     14430     14432
     14427     14430     14433     14428     14427     14429     14428     14427     14430
     14429     14427     14430     14430     14433     14434     14430     14433     14435
     14430     14433     14436     14431     14430     14432     14431     14430     14433
     14432     14430     14433     14433     14436     14437     14433     14436     14438
     14433     14436     14439     14434     14433     14435     14434     14433     14436
     14435     14433     14436     14436     14439     14440     14436     14439     14441
     14436     14439     14442     14437     14436     14438     14437     14436     14439
     14438     14436     14439     14440     14439     14441     14440     14439     14442
     14441     14439     14442     14443     14446     14447     14443     14446     14448
     14443     14446     14449     14444     14443     14445     14444     14443     14446
     14445     14443     14446     14446     14449     14450     14446     14449     14451
     14446     14449     14452     14447     14446     14448     14447     14446     14449
     14448     14446     14449     14449     14452     14453     14449     14452     14454
     14449     14452     14455     14450     14449     14451     14450     14449     14452
     14451     14449     14452     14452     14455     14456     14452     14455     14457
     14452     14455     14458     14453     14452     14454     14453     14452     14455
     14454     14452     14455     14455     14458     14459     14455     14458     14460
     14455     14458     14461     14456     14455     14457     14456     14455     14458
     14457     14455     14458     14458     14461     14462     14458     14461     14463
     14458     14461     14464     14459     14458     14460     14459     14458     14461
     14460     14458     14461     14461     14464     14465     14461     14464     14466
     14461     14464     14467     14462     14461     14463     14462     14461     14464
     14463     14461     14464     14464     14467     14468     14464     14467     14469
     14465     14464     14466     14465     14464     14467     14466     14464     14467
     14467     14469     14470     14467     14469     14471     14468     14467     14469
     14469     14471     14472     14469     14471     14473     14469     14471     14474
     14470     14469     14471     14471     14474     14475     14471     14474     14476
     14471     14474     14477     14472     14471     14473     14472     14471     14474
     14473     14471     14474     14474     14477     14478     14474     14477     14479
     14474     14477     14480     14475     14474     14476     14475     14474     14477
     14476     14474     14477     14477     14480     14481     14477     14480     14482
     14477     14480     14483     14478     14477     14479     14478     14477     14480
     14479     14477     14480     14480     14483     14484     14480     14483     14485
     14480     14483     14486     14481     14480     14482     14481     14480     14483
     14482     14480     14483     14483     14486     14487     14483     14486     14488
     14483     14486     14489     14484     14483     14485     14484     14483     14486
     14485     14483     14486     14487     14486     14488     14487     14486     14489
     14488     14486     14489     14490     14493     14494     14490     14493     14495
     14490     14493     14496     14491     14490     14492     14491     14490     14493
     14492     14490     14493     14493     14496     14497     14493     14496     14498
     14493     14496     14499     14494     14493     14495     14494     14493     14496
     14495     14493     14496     14496     14499     14500     14496     14499     14501
     14496     14499     14502     14497     14496     14498     14497     14496     14499
     14498     14496     14499     14499     14502     14503     14499     14502     14504
     14499     14502     14505     14500     14499     14501     14500     14499     14502
     14501     14499     14502     14502     14505     14506     14502     14505     14507
     14502     14505     14508     14503     14502     14504     14503     14502     14505
     14504     14502     14505     14505     14508     14509     14505     14508     14510
     14505     14508     14511     14506     14505     14507     14506     14505     14508
     14507     14505     14508     14508     14511     14512     14508     14511     14513
     14508     14511     14514     14509     14508     14510     14509     14508     14511
     14510     14508     14511     14511     14514     14515     14511     14514     14516
     14511     14514     14517     14512     14511     14513     14512     14511     14514
     14513     14511     14514     14514     14517     14518     14514     14517     14519
     14514     14517     14520     14515     14514     14516     14515     14514     14517
     14516     14514     14517     14517     14520     14521     14517     14520     14522
     14517     14520     14523     14518     14517     14519     14518     14517     14520
     14519     14517     14520     14520     14523     14524     14520     14523     14525
     14520     14523     14526     14521     14520     14522     14521     14520     14523
     14522     14520     14523     14523     14526     14527     14523     14526     14528
     14523     14526     14529     14524     14523     14525     14524     14523     14526
     14525     14523     14526     14526     14529     14530     14526     14529     14531
     14526     14529     14532     14527     14526     14528     14527     14526     14529
     14528     14526     14529     14530     14529     14531     14530     14529     14532
     14531     14529     14532     14533     14537     14538     14533     14537     14539
     14533     14537     14540     14534     14533     14535     14534     14533     14536
     14534     14533     14537     14535     14533     14536     14535     14533     14537
     14536     14533     14537     14537     14540     14541     14537     14540     14542
     14537     14540     14547     14538     14537     14539     14538     14537     14540
     14539     14537     14540     14540     14547     14543     14541     14540     14542
     14541     14540     14547     14542     14540     14547     14543     14546     14548
     14544     14543     14545     14544     14543     14546     14544     14543     14547
     14545     14543     14546     14545     14543     14547     14546     14543     14547
     14546     14548     14549     14546     14548     14550     14546     14548     14551
     14548     14551     14552     14548     14551     14553     14548     14551     14559
     14549     14548     14550     14549     14548     14551     14550     14548     14551
     14551     14553     14554     14551     14559     14560     14551     14559     14561
     14551     14559     14562     14552     14551     14553     14552     14551     14559
     14553     14551     14559     14553     14554     14555     14553     14554     14556
     14554     14556     14557     14554     14556     14558     14554     14556     14568
     14555     14554     14556     14556     14568     14569     14556     14568     14570
     14556     14568     14571     14557     14556     14558     14557     14556     14568
     14558     14556     14568     14559     14562     14563     14560     14559     14561
     14560     14559     14562     14561     14559     14562     14562     14563     14564
     14562     14563     14565     14563     14565     14566     14563     14565     14567
     14563     14565     14612     14564     14563     14565     14565     14612     14613
     14565     14612     14614     14565     14612     14615     14566     14565     14567
     14566     14565     14612     14567     14565     14612     14568     14571     14572
     14568     14571     14573     14568     14571     14574     14569     14568     14570
     14569     14568     14571     14570     14568     14571     14571     14574     14575
     14571     14574     14576     14571     14574     14577     14572     14571     14573
     14572     14571     14574     14573     14571     14574     14574     14577     14578
     14574     14577     14579     14574     14577     14580     14575     14574     14576
     14575     14574     14577     14576     14574     14577     14577     14580     14581
     14577     14580     14582     14577     14580     14583     14578     14577     14579
     14578     14577     14580     14579     14577     14580     14580     14583     14584
     14580     14583     14585     14580     14583     14586     14581     14580     14582
     14581     14580     14583     14582     14580     14583     14583     14586     14587
     14583     14586     14588     14583     14586     14591     14584     14583     14585
     14584     14583     14586     14585     14583     14586     14586     14588     14589
     14586     14588     14590     14586     14588     14591     14586     14591     14588
     14586     14591     14592     14586     14591     14593     14587     14586     14588
     14587     14586     14591     14588     14586     14591     14588     14591     14592
     14588     14591     14593     14589     14588     14590     14589     14588     14591
     14590     14588     14591     14591     14593     14594     14591     14593     14595
     14591     14593     14596     14592     14591     14593     14593     14596     14597
     14593     14596     14598     14593     14596     14599     14594     14593     14595
     14594     14593     14596     14595     14593     14596     14596     14599     14600
     14596     14599     14601     14596     14599     14602     14597     14596     14598
     14597     14596     14599     14598     14596     14599     14599     14602     14603
     14599     14602     14604     14599     14602     14605     14600     14599     14601
     14600     14599     14602     14601     14599     14602     14602     14605     14606
     14602     14605     14607     14602     14605     14608     14603     14602     14604
     14603     14602     14605     14604     14602     14605     14605     14608     14609
     14605     14608     14610     14605     14608     14611     14606     14605     14607
     14606     14605     14608     14607     14605     14608     14609     14608     14610
     14609     14608     14611     14610     14608     14611     14612     14615     14616
     14612     14615     14617     14612     14615     14618     14613     14612     14614
     14613     14612     14615     14614     14612     14615     14615     14618     14619
     14615     14618     14620     14615     14618     14621     14616     14615     14617
     14616     14615     14618     14617     14615     14618     14618     14621     14622
     14618     14621     14623     14618     14621     14624     14619     14618     14620
     14619     14618     14621     14620     14618     14621     14621     14624     14625
     14621     14624     14626     14621     14624     14627     14622     14621     14623
     14622     14621     14624     14623     14621     14624     14624     14627     14628
     14624     14627     14629     14624     14627     14630     14625     14624     14626
     14625     14624     14627     14626     14624     14627     14627     14630     14631
     14627     14630     14632     14627     14630     14633     14628     14627     14629
     14628     14627     14630     14629     14627     14630     14630     14633     14634
     14630     14633     14635     14630     14633     14636     14631     14630     14632
     14631     14630     14633     14632     14630     14633     14633     14636     14637
     14633     14636     14638     14633     14636     14639     14634     14633     14635
     14634     14633     14636     14635     14633     14636     14636     14639     14640
     14636     14639     14641     14636     14639     14642     14637     14636     14638
     14637     14636     14639     14638     14636     14639     14639     14642     14643
     14639     14642     14644     14639     14642     14645     14640     14639     14641
     14640     14639     14642     14641     14639     14642     14642     14645     14646
     14642     14645     14647     14642     14645     14648     14643     14642     14644
     14643     14642     14645     14644     14642     14645     14645     14648     14649
     14645     14648     14650     14645     14648     14651     14646     14645     14647
     14646     14645     14648     14647     14645     14648     14649     14648     14650
     14649     14648     14651     14650     14648     14651     14652     14656     14657
     14652     14656     14658     14652     14656     14659     14653     14652     14654
     14653     14652     14655     14653     14652     14656     14654     14652     14655
     14654     14652     14656     14655     14652     14656     14656     14659     14660
     14656     14659     14661     14656     14659     14666     14657     14656     14658
     14657     14656     14659     14658     14656     14659     14659     14666     14662
     14660     14659     14661     14660     14659     14666     14661     14659     14666
     14662     14665     14667     14663     14662     14664     14663     14662     14665
     14663     14662     14666     14664     14662     14665     14664     14662     14666
     14665     14662     14666     14665     14667     14668     14665     14667     14669
     14665     14667     14670     14667     14670     14671     14667     14670     14672
     14667     14670     14678     14668     14667     14669     14668     14667     14670
     14669     14667     14670     14670     14672     14673     14670     14678     14679
     14670     14678     14680     14670     14678     14681     14671     14670     14672
     14671     14670     14678     14672     14670     14678     14672     14673     14674
     14672     14673     14675     14673     14675     14676     14673     14675     14677
     14673     14675     14687     14674     14673     14675     14675     14687     14688
     14675     14687     14689     14675     14687     14690     14676     14675     14677
     14676     14675     14687     14677     14675     14687     14678     14681     14682
     14679     14678     14680     14679     14678     14681     14680     14678     14681
     14681     14682     14683     14681     14682     14684     14682     14684     14685
     14682     14684     14686     14682     14684     14731     14683     14682     14684
     14684     14731     14732     14684     14731     14733     14684     14731     14734
     14685     14684     14686     14685     14684     14731     14686     14684     14731
     14687     14690     14691     14687     14690     14692     14687     14690     14693
     14688     14687     14689     14688     14687     14690     14689     14687     14690
     14690     14693     14694     14690     14693     14695     14690     14693     14696
     14691     14690     14692     14691     14690     14693     14692     14690     14693
     14693     14696     14697     14693     14696     14698     14693     14696     14699
     14694     14693     14695     14694     14693     14696     14695     14693     14696
     14696     14699     14700     14696     14699     14701     14696     14699     14702
     14697     14696     14698     14697     14696     14699     14698     14696     14699
     14699     14702     14703     14699     14702     14704     14699     14702     14705
     14700     14699     14701     14700     14699     14702     14701     14699     14702
     14702     14705     14706     14702     14705     14707     14702     14705     14710
     14703     14702     14704     14703     14702     14705     14704     14702     14705
     14705     14707     14708     14705     14707     14709     14705     14707     14710
     14705     14710     14707     14705     14710     14711     14705     14710     14712
     14706     14705     14707     14706     14705     14710     14707     14705     14710
     14707     14710     14711     14707     14710     14712     14708     14707     14709
     14708     14707     14710     14709     14707     14710     14710     14712     14713
     14710     14712     14714     14710     14712     14715     14711     14710     14712
     14712     14715     14716     14712     14715     14717     14712     14715     14718
     14713     14712     14714     14713     14712     14715     14714     14712     14715
     14715     14718     14719     14715     14718     14720     14715     14718     14721
     14716     14715     14717     14716     14715     14718     14717     14715     14718
     14718     14721     14722     14718     14721     14723     14718     14721     14724
     14719     14718     14720     14719     14718     14721     14720     14718     14721
     14721     14724     14725     14721     14724     14726     14721     14724     14727
     14722     14721     14723     14722     14721     14724     14723     14721     14724
     14724     14727     14728     14724     14727     14729     14724     14727     14730
     14725     14724     14726     14725     14724     14727     14726     14724     14727
     14728     14727     14729     14728     14727     14730     14729     14727     14730
     14731     14734     14735     14731     14734     14736     14731     14734     14737
     14732     14731     14733     14732     14731     14734     14733     14731     14734
     14734     14737     14738     14734     14737     14739     14734     14737     14740
     14735     14734     14736     14735     14734     14737     14736     14734     14737
     14737     14740     14741     14737     14740     14742     14737     14740     14743
     14738     14737     14739     14738     14737     14740     14739     14737     14740
     14740     14743     14744     14740     14743     14745     14740     14743     14746
     14741     14740     14742     14741     14740     14743     14742     14740     14743
     14743     14746     14747     14743     14746     14748     14743     14746     14749
     14744     14743     14745     14744     14743     14746     14745     14743     14746
     14746     14749     14750     14746     14749     14751     14746     14749     14752
     14747     14746     14748     14747     14746     14749     14748     14746     14749
     14749     14752     14753     14749     14752     14754     14749     14752     14755
     14750     14749     14751     14750     14749     14752     14751     14749     14752
     14752     14755     14756     14752     14755     14757     14752     14755     14758
     14753     14752     14754     14753     14752     14755     14754     14752     14755
     14755     14758     14759     14755     14758     14760     14755     14758     14761
     14756     14755     14757     14756     14755     14758     14757     14755     14758
     14758     14761     14762     14758     14761     14763     14758     14761     14764
     14759     14758     14760     14759     14758     14761     14760     14758     14761
     14761     14764     14765     14761     14764     14766     14761     14764     14767
     14762     14761     14763     14762     14761     14764     14763     14761     14764
     14764     14767     14768     14764     14767     14769     14764     14767     14770
     14765     14764     14766     14765     14764     14767     14766     14764     14767
     14768     14767     14769     14768     14767     14770     14769     14767     14770
     14771     14775     14776     14771     14775     14777     14771     14775     14778
     14772     14771     14773     14772     14771     14774     14772     14771     14775
     14773     14771     14774     14773     14771     14775     14774     14771     14775
     14775     14778     14779     14775     14778     14780     14775     14778     14785
     14776     14775     14777     14776     14775     14778     14777     14775     14778
     14778     14785     14781     14779     14778     14780     14779     14778     14785
     14780     14778     14785     14781     14784     14786     14782     14781     14783
     14782     14781     14784     14782     14781     14785     14783     14781     14784
     14783     14781     14785     14784     14781     14785     14784     14786     14787
     14784     14786     14788     14784     14786     14789     14786     14789     14790
     14786     14789     14791     14786     14789     14797     14787     14786     14788
     14787     14786     14789     14788     14786     14789     14789     14791     14792
     14789     14797     14798     14789     14797     14799     14789     14797     14800
     14790     14789     14791     14790     14789     14797     14791     14789     14797
     14791     14792     14793     14791     14792     14794     14792     14794     14795
     14792     14794     14796     14792     14794     14806     14793     14792     14794
     14794     14806     14807     14794     14806     14808     14794     14806     14809
     14795     14794     14796     14795     14794     14806     14796     14794     14806
     14797     14800     14801     14798     14797     14799     14798     14797     14800
     14799     14797     14800     14800     14801     14802     14800     14801     14803
     14801     14803     14804     14801     14803     14805     14801     14803     14850
     14802     14801     14803     14803     14850     14851     14803     14850     14852
     14803     14850     14853     14804     14803     14805     14804     14803     14850
     14805     14803     14850     14806     14809     14810     14806     14809     14811
     14806     14809     14812     14807     14806     14808     14807     14806     14809
     14808     14806     14809     14809     14812     14813     14809     14812     14814
     14809     14812     14815     14810     14809     14811     14810     14809     14812
     14811     14809     14812     14812     14815     14816     14812     14815     14817
     14812     14815     14818     14813     14812     14814     14813     14812     14815
     14814     14812     14815     14815     14818     14819     14815     14818     14820
     14815     14818     14821     14816     14815     14817     14816     14815     14818
     14817     14815     14818     14818     14821     14822     14818     14821     14823
     14818     14821     14824     14819     14818     14820     14819     14818     14821
     14820     14818     14821     14821     14824     14825     14821     14824     14826
     14821     14824     14829     14822     14821     14823     14822     14821     14824
     14823     14821     14824     14824     14826     14827     14824     14826     14828
     14824     14826     14829     14824     14829     14826     14824     14829     14830
     14824     14829     14831     14825     14824     14826     14825     14824     14829
     14826     14824     14829     14826     14829     14830     14826     14829     14831
     14827     14826     14828     14827     14826     14829     14828     14826     14829
     14829     14831     14832     14829     14831     14833     14829     14831     14834
     14830     14829     14831     14831     14834     14835     14831     14834     14836
     14831     14834     14837     14832     14831     14833     14832     14831     14834
     14833     14831     14834     14834     14837     14838     14834     14837     14839
     14834     14837     14840     14835     14834     14836     14835     14834     14837
     14836     14834     14837     14837     14840     14841     14837     14840     14842
     14837     14840     14843     14838     14837     14839     14838     14837     14840
     14839     14837     14840     14840     14843     14844     14840     14843     14845
     14840     14843     14846     14841     14840     14842     14841     14840     14843
     14842     14840     14843     14843     14846     14847     14843     14846     14848
     14843     14846     14849     14844     14843     14845     14844     14843     14846
     14845     14843     14846     14847     14846     14848     14847     14846     14849
     14848     14846     14849     14850     14853     14854     14850     14853     14855
     14850     14853     14856     14851     14850     14852     14851     14850     14853
     14852     14850     14853     14853     14856     14857     14853     14856     14858
     14853     14856     14859     14854     14853     14855     14854     14853     14856
     14855     14853     14856     14856     14859     14860     14856     14859     14861
     14856     14859     14862     14857     14856     14858     14857     14856     14859
     14858     14856     14859     14859     14862     14863     14859     14862     14864
     14859     14862     14865     14860     14859     14861     14860     14859     14862
     14861     14859     14862     14862     14865     14866     14862     14865     14867
     14862     14865     14868     14863     14862     14864     14863     14862     14865
     14864     14862     14865     14865     14868     14869     14865     14868     14870
     14865     14868     14871     14866     14865     14867     14866     14865     14868
     14867     14865     14868     14868     14871     14872     14868     14871     14873
     14868     14871     14874     14869     14868     14870     14869     14868     14871
     14870     14868     14871     14871     14874     14875     14871     14874     14876
     14871     14874     14877     14872     14871     14873     14872     14871     14874
     14873     14871     14874     14874     14877     14878     14874     14877     14879
     14874     14877     14880     14875     14874     14876     14875     14874     14877
     14876     14874     14877     14877     14880     14881     14877     14880     14882
     14877     14880     14883     14878     14877     14879     14878     14877     14880
     14879     14877     14880     14880     14883     14884     14880     14883     14885
     14880     14883     14886     14881     14880     14882     14881     14880     14883
     14882     14880     14883     14883     14886     14887     14883     14886     14888
     14883     14886     14889     14884     14883     14885     14884     14883     14886
     14885     14883     14886     14886     14889     14890     14886     14889     14891
     14886     14889     14892     14887     14886     14888     14887     14886     14889
     14888     14886     14889     14890     14889     14891     14890     14889     14892
     14891     14889     14892     14893     14896     14897     14893     14898     14899
     14893     14898     14900     14893     14898     14902     14894     14893     14895
     14894     14893     14896     14894     14893     14898     14895     14893     14896
     14895     14893     14898     14896     14893     14898     14898     14900     14901
     14898     14902     14903     14898     14902     14904     14898     14902     14909
     14899     14898     14900     14899     14898     14902     14900     14898     14902
     14902     14909     14905     14903     14902     14904     14903     14902     14909
     14904     14902     14909     14905     14908     14910     14906     14905     14907
     14906     14905     14908     14906     14905     14909     14907     14905     14908
     14907     14905     14909     14908     14905     14909     14908     14910     14911
     14908     14910     14912     14908     14910     14913     14910     14913     14914
     14910     14913     14915     14910     14913     14921     14911     14910     14912
     14911     14910     14913     14912     14910     14913     14913     14915     14916
     14913     14921     14922     14913     14921     14923     14913     14921     14924
     14914     14913     14915     14914     14913     14921     14915     14913     14921
     14915     14916     14917     14915     14916     14918     14916     14918     14919
     14916     14918     14920     14916     14918     14930     14917     14916     14918
     14918     14930     14931     14918     14930     14932     14918     14930     14933
     14919     14918     14920     14919     14918     14930     14920     14918     14930
     14921     14924     14925     14922     14921     14923     14922     14921     14924
     14923     14921     14924     14924     14925     14926     14924     14925     14927
     14925     14927     14928     14925     14927     14929     14925     14927     14974
     14926     14925     14927     14927     14974     14975     14927     14974     14976
     14927     14974     14977     14928     14927     14929     14928     14927     14974
     14929     14927     14974     14930     14933     14934     14930     14933     14935
     14930     14933     14936     14931     14930     14932     14931     14930     14933
     14932     14930     14933     14933     14936     14937     14933     14936     14938
     14933     14936     14939     14934     14933     14935     14934     14933     14936
     14935     14933     14936     14936     14939     14940     14936     14939     14941
     14936     14939     14942     14937     14936     14938     14937     14936     14939
     14938     14936     14939     14939     14942     14943     14939     14942     14944
     14939     14942     14945     14940     14939     14941     14940     14939     14942
     14941     14939     14942     14942     14945     14946     14942     14945     14947
     14942     14945     14948     14943     14942     14944     14943     14942     14945
     14944     14942     14945     14945     14948     14949     14945     14948     14950
     14945     14948     14953     14946     14945     14947     14946     14945     14948
     14947     14945     14948     14948     14950     14951     14948     14950     14952
     14948     14950     14953     14948     14953     14950     14948     14953     14954
     14948     14953     14955     14949     14948     14950     14949     14948     14953
     14950     14948     14953     14950     14953     14954     14950     14953     14955
     14951     14950     14952     14951     14950     14953     14952     14950     14953
     14953     14955     14956     14953     14955     14957     14953     14955     14958
     14954     14953     14955     14955     14958     14959     14955     14958     14960
     14955     14958     14961     14956     14955     14957     14956     14955     14958
     14957     14955     14958     14958     14961     14962     14958     14961     14963
     14958     14961     14964     14959     14958     14960     14959     14958     14961
     14960     14958     14961     14961     14964     14965     14961     14964     14966
     14961     14964     14967     14962     14961     14963     14962     14961     14964
     14963     14961     14964     14964     14967     14968     14964     14967     14969
     14964     14967     14970     14965     14964     14966     14965     14964     14967
     14966     14964     14967     14967     14970     14971     14967     14970     14972
     14967     14970     14973     14968     14967     14969     14968     14967     14970
     14969     14967     14970     14971     14970     14972     14971     14970     14973
     14972     14970     14973     14974     14977     14978     14974     14977     14979
     14974     14977     14980     14975     14974     14976     14975     14974     14977
     14976     14974     14977     14977     14980     14981     14977     14980     14982
     14977     14980     14983     14978     14977     14979     14978     14977     14980
     14979     14977     14980     14980     14983     14984     14980     14983     14985
     14980     14983     14986     14981     14980     14982     14981     14980     14983
     14982     14980     14983     14983     14986     14987     14983     14986     14988
     14983     14986     14989     14984     14983     14985     14984     14983     14986
     14985     14983     14986     14986     14989     14990     14986     14989     14991
     14986     14989     14992     14987     14986     14988     14987     14986     14989
     14988     14986     14989     14989     14992     14993     14989     14992     14994
     14989     14992     14995     14990     14989     14991     14990     14989     14992
     14991     14989     14992     14992     14995     14996     14992     14995     14997
     14992     14995     14998     14993     14992     14994     14993     14992     14995
     14994     14992     14995     14995     14998     14999     14995     14998     15000
     14995     14998     15001     14996     14995     14997     14996     14995     14998
     14997     14995     14998     14998     15001     15002     14998     15001     15003
     14998     15001     15004     14999     14998     15000     14999     14998     15001
     15000     14998     15001     15001     15004     15005     15001     15004     15006
     15001     15004     15007     15002     15001     15003     15002     15001     15004
     15003     15001     15004     15004     15007     15008     15004     15007     15009
     15004     15007     15010     15005     15004     15006     15005     15004     15007
     15006     15004     15007     15007     15010     15011     15007     15010     15012
     15007     15010     15013     15008     15007     15009     15008     15007     15010
     15009     15007     15010     15010     15013     15014     15010     15013     15015
     15010     15013     15016     15011     15010     15012     15011     15010     15013
     15012     15010     15013     15014     15013     15015     15014     15013     15016
     15015     15013     15016     15017     15021     15022     15017     15021     15023
     15017     15021     15024     15018     15017     15019     15018     15017     15020
     15018     15017     15021     15019     15017     15020     15019     15017     15021
     15020     15017     15021     15021     15024     15025     15021     15024     15026
     15021     15024     15031     15022     15021     15023     15022     15021     15024
     15023     15021     15024     15024     15031     15027     15025     15024     15026
     15025     15024     15031     15026     15024     15031     15027     15030     15032
     15028     15027     15029     15028     15027     15030     15028     15027     15031
     15029     15027     15030     15029     15027     15031     15030     15027     15031
     15030     15032     15033     15030     15032     15034     15030     15032     15035
     15032     15035     15036     15032     15035     15037     15032     15035     15043
     15033     15032     15034     15033     15032     15035     15034     15032     15035
     15035     15037     15038     15035     15043     15044     15035     15043     15045
     15035     15043     15046     15036     15035     15037     15036     15035     15043
     15037     15035     15043     15037     15038     15039     15037     15038     15040
     15038     15040     15041     15038     15040     15042     15038     15040     15052
     15039     15038     15040     15040     15052     15053     15040     15052     15054
     15040     15052     15055     15041     15040     15042     15041     15040     15052
     15042     15040     15052     15043     15046     15047     15044     15043     15045
     15044     15043     15046     15045     15043     15046     15046     15047     15048
     15046     15047     15049     15047     15049     15050     15047     15049     15051
     15047     15049     15096     15048     15047     15049     15049     15096     15097
     15049     15096     15098     15049     15096     15099     15050     15049     15051
     15050     15049     15096     15051     15049     15096     15052     15055     15056
     15052     15055     15057     15052     15055     15058     15053     15052     15054
     15053     15052     15055     15054     15052     15055     15055     15058     15059
     15055     15058     15060     15055     15058     15061     15056     15055     15057
     15056     15055     15058     15057     15055     15058     15058     15061     15062
     15058     15061     15063     15058     15061     15064     15059     15058     15060
     15059     15058     15061     15060     15058     15061     15061     15064     15065
     15061     15064     15066     15061     15064     15067     15062     15061     15063
     15062     15061     15064     15063     15061     15064     15064     15067     15068
     15064     15067     15069     15064     15067     15070     15065     15064     15066
     15065     15064     15067     15066     15064     15067     15067     15070     15071
     15067     15070     15072     15067     15070     15075     15068     15067     15069
     15068     15067     15070     15069     15067     15070     15070     15072     15073
     15070     15072     15074     15070     15072     15075     15070     15075     15072
     15070     15075     15076     15070     15075     15077     15071     15070     15072
     15071     15070     15075     15072     15070     15075     15072     15075     15076
     15072     15075     15077     15073     15072     15074     15073     15072     15075
     15074     15072     15075     15075     15077     15078     15075     15077     15079
     15075     15077     15080     15076     15075     15077     15077     15080     15081
     15077     15080     15082     15077     15080     15083     15078     15077     15079
     15078     15077     15080     15079     15077     15080     15080     15083     15084
     15080     15083     15085     15080     15083     15086     15081     15080     15082
     15081     15080     15083     15082     15080     15083     15083     15086     15087
     15083     15086     15088     15083     15086     15089     15084     15083     15085
     15084     15083     15086     15085     15083     15086     15086     15089     15090
     15086     15089     15091     15086     15089     15092     15087     15086     15088
     15087     15086     15089     15088     15086     15089     15089     15092     15093
     15089     15092     15094     15089     15092     15095     15090     15089     15091
     15090     15089     15092     15091     15089     15092     15093     15092     15094
     15093     15092     15095     15094     15092     15095     15096     15099     15100
     15096     15099     15101     15096     15099     15102     15097     15096     15098
     15097     15096     15099     15098     15096     15099     15099     15102     15103
     15099     15102     15104     15099     15102     15105     15100     15099     15101
     15100     15099     15102     15101     15099     15102     15102     15105     15106
     15102     15105     15107     15102     15105     15108     15103     15102     15104
     15103     15102     15105     15104     15102     15105     15105     15108     15109
     15105     15108     15110     15105     15108     15111     15106     15105     15107
     15106     15105     15108     15107     15105     15108     15108     15111     15112
     15108     15111     15113     15108     15111     15114     15109     15108     15110
     15109     15108     15111     15110     15108     15111     15111     15114     15115
     15111     15114     15116     15111     15114     15117     15112     15111     15113
     15112     15111     15114     15113     15111     15114     15114     15117     15118
     15114     15117     15119     15114     15117     15120     15115     15114     15116
     15115     15114     15117     15116     15114     15117     15117     15120     15121
     15117     15120     15122     15117     15120     15123     15118     15117     15119
     15118     15117     15120     15119     15117     15120     15120     15123     15124
     15120     15123     15125     15120     15123     15126     15121     15120     15122
     15121     15120     15123     15122     15120     15123     15123     15126     15127
     15123     15126     15128     15123     15126     15129     15124     15123     15125
     15124     15123     15126     15125     15123     15126     15126     15129     15130
     15126     15129     15131     15126     15129     15132     15127     15126     15128
     15127     15126     15129     15128     15126     15129     15129     15132     15133
     15129     15132     15134     15129     15132     15135     15130     15129     15131
     15130     15129     15132     15131     15129     15132     15132     15135     15136
     15132     15135     15137     15132     15135     15138     15133     15132     15134
     15133     15132     15135     15134     15132     15135     15136     15135     15137
     15136     15135     15138     15137     15135     15138     15139     15143     15144
     15139     15143     15145     15139     15143     15146     15140     15139     15141
     15140     15139     15142     15140     15139     15143     15141     15139     15142
     15141     15139     15143     15142     15139     15143     15143     15146     15147
     15143     15146     15148     15143     15146     15153     15144     15143     15145
     15144     15143     15146     15145     15143     15146     15146     15153     15149
     15147     15146     15148     15147     15146     15153     15148     15146     15153
     15149     15152     15154     15150     15149     15151     15150     15149     15152
     15150     15149     15153     15151     15149     15152     15151     15149     15153
     15152     15149     15153     15152     15154     15155     15152     15154     15156
     15152     15154     15157     15154     15157     15158     15154     15157     15159
     15154     15157     15165     15155     15154     15156     15155     15154     15157
     15156     15154     15157     15157     15159     15160     15157     15165     15166
     15157     15165     15167     15157     15165     15168     15158     15157     15159
     15158     15157     15165     15159     15157     15165     15159     15160     15161
     15159     15160     15162     15160     15162     15163     15160     15162     15164
     15160     15162     15174     15161     15160     15162     15162     15174     15175
     15162     15174     15176     15162     15174     15177     15163     15162     15164
     15163     15162     15174     15164     15162     15174     15165     15168     15169
     15166     15165     15167     15166     15165     15168     15167     15165     15168
     15168     15169     15170     15168     15169     15171     15169     15171     15172
     15169     15171     15173     15169     15171     15215     15170     15169     15171
     15171     15215     15216     15171     15215     15217     15171     15215     15218
     15172     15171     15173     15172     15171     15215     15173     15171     15215
     15174     15177     15178     15174     15177     15179     15174     15177     15180
     15175     15174     15176     15175     15174     15177     15176     15174     15177
     15177     15180     15181     15177     15180     15182     15177     15180     15183
     15178     15177     15179     15178     15177     15180     15179     15177     15180
     15180     15183     15184     15180     15183     15185     15180     15183     15186
     15181     15180     15182     15181     15180     15183     15182     15180     15183
     15183     15186     15187     15183     15186     15188     15183     15186     15189
     15184     15183     15185     15184     15183     15186     15185     15183     15186
     15186     15189     15190     15186     15189     15191     15186     15189     15192
     15187     15186     15188     15187     15186     15189     15188     15186     15189
     15189     15192     15193     15189     15192     15194     15190     15189     15191
     15190     15189     15192     15191     15189     15192     15192     15194     15195
     15192     15194     15196     15193     15192     15194     15194     15196     15197
     15194     15196     15198     15194     15196     15199     15195     15194     15196
     15196     15199     15200     15196     15199     15201     15196     15199     15202
     15197     15196     15198     15197     15196     15199     15198     15196     15199
     15199     15202     15203     15199     15202     15204     15199     15202     15205
     15200     15199     15201     15200     15199     15202     15201     15199     15202
     15202     15205     15206     15202     15205     15207     15202     15205     15208
     15203     15202     15204     15203     15202     15205     15204     15202     15205
     15205     15208     15209     15205     15208     15210     15205     15208     15211
     15206     15205     15207     15206     15205     15208     15207     15205     15208
     15208     15211     15212     15208     15211     15213     15208     15211     15214
     15209     15208     15210     15209     15208     15211     15210     15208     15211
     15212     15211     15213     15212     15211     15214     15213     15211     15214
     15215     15218     15219     15215     15218     15220     15215     15218     15221
     15216     15215     15217     15216     15215     15218     15217     15215     15218
     15218     15221     15222     15218     15221     15223     15218     15221     15224
     15219     15218     15220     15219     15218     15221     15220     15218     15221
     15221     15224     15225     15221     15224     15226     15221     15224     15227
     15222     15221     15223     15222     15221     15224     15223     15221     15224
     15224     15227     15228     15224     15227     15229     15224     15227     15230
     15225     15224     15226     15225     15224     15227     15226     15224     15227
     15227     15230     15231     15227     15230     15232     15227     15230     15233
     15228     15227     15229     15228     15227     15230     15229     15227     15230
     15230     15233     15234     15230     15233     15235     15231     15230     15232
     15231     15230     15233     15232     15230     15233     15233     15235     15236
     15233     15235     15237     15234     15233     15235     15235     15237     15238
     15235     15237     15239     15235     15237     15240     15236     15235     15237
     15237     15240     15241     15237     15240     15242     15237     15240     15243
     15238     15237     15239     15238     15237     15240     15239     15237     15240
     15240     15243     15244     15240     15243     15245     15240     15243     15246
     15241     15240     15242     15241     15240     15243     15242     15240     15243
     15243     15246     15247     15243     15246     15248     15243     15246     15249
     15244     15243     15245     15244     15243     15246     15245     15243     15246
     15246     15249     15250     15246     15249     15251     15246     15249     15252
     15247     15246     15248     15247     15246     15249     15248     15246     15249
     15249     15252     15253     15249     15252     15254     15249     15252     15255
     15250     15249     15251     15250     15249     15252     15251     15249     15252
     15252     15255     15256     15252     15255     15257     15252     15255     15258
     15253     15252     15254     15253     15252     15255     15254     15252     15255
     15255     15258     15259     15255     15258     15260     15255     15258     15261
     15256     15255     15257     15256     15255     15258     15257     15255     15258
     15259     15258     15260     15259     15258     15261     15260     15258     15261
     15262     15266     15267     15262     15266     15268     15262     15266     15269
     15263     15262     15264     15263     15262     15265     15263     15262     15266
     15264     15262     15265     15264     15262     15266     15265     15262     15266
     15266     15269     15270     15266     15269     15271     15266     15269     15276
     15267     15266     15268     15267     15266     15269     15268     15266     15269
     15269     15276     15272     15270     15269     15271     15270     15269     15276
     15271     15269     15276     15272     15275     15277     15273     15272     15274
     15273     15272     15275     15273     15272     15276     15274     15272     15275
     15274     15272     15276     15275     15272     15276     15275     15277     15278
     15275     15277     15279     15275     15277     15280     15277     15280     15281
     15277     15280     15282     15277     15280     15288     15278     15277     15279
     15278     15277     15280     15279     15277     15280     15280     15282     15283
     15280     15288     15289     15280     15288     15290     15280     15288     15291
     15281     15280     15282     15281     15280     15288     15282     15280     15288
     15282     15283     15284     15282     15283     15285     15283     15285     15286
     15283     15285     15287     15283     15285     15297     15284     15283     15285
     15285     15297     15298     15285     15297     15299     15285     15297     15300
     15286     15285     15287     15286     15285     15297     15287     15285     15297
     15288     15291     15292     15289     15288     15290     15289     15288     15291
     15290     15288     15291     15291     15292     15293     15291     15292     15294
     15292     15294     15295     15292     15294     15296     15292     15294     15344
     15293     15292     15294     15294     15344     15345     15294     15344     15346
     15294     15344     15347     15295     15294     15296     15295     15294     15344
     15296     15294     15344     15297     15300     15301     15297     15300     15302
     15297     15300     15303     15298     15297     15299     15298     15297     15300
     15299     15297     15300     15300     15303     15304     15300     15303     15305
     15300     15303     15306     15301     15300     15302     15301     15300     15303
     15302     15300     15303     15303     15306     15307     15303     15306     15308
     15303     15306     15309     15304     15303     15305     15304     15303     15306
     15305     15303     15306     15306     15309     15310     15306     15309     15311
     15306     15309     15312     15307     15306     15308     15307     15306     15309
     15308     15306     15309     15309     15312     15313     15309     15312     15314
     15309     15312     15315     15310     15309     15311     15310     15309     15312
     15311     15309     15312     15312     15315     15316     15312     15315     15317
     15313     15312     15314     15313     15312     15315     15314     15312     15315
     15315     15317     15318     15315     15317     15319     15316     15315     15317
     15317     15319     15320     15317     15319     15321     15317     15319     15322
     15318     15317     15319     15319     15322     15323     15319     15322     15324
     15319     15322     15325     15320     15319     15321     15320     15319     15322
     15321     15319     15322     15322     15325     15326     15322     15325     15327
     15322     15325     15328     15323     15322     15324     15323     15322     15325
     15324     15322     15325     15325     15328     15329     15325     15328     15330
     15325     15328     15331     15326     15325     15327     15326     15325     15328
     15327     15325     15328     15328     15331     15332     15328     15331     15333
     15328     15331     15334     15329     15328     15330     15329     15328     15331
     15330     15328     15331     15331     15334     15335     15331     15334     15336
     15331     15334     15337     15332     15331     15333     15332     15331     15334
     15333     15331     15334     15334     15337     15338     15334     15337     15339
     15334     15337     15340     15335     15334     15336     15335     15334     15337
     15336     15334     15337     15337     15340     15341     15337     15340     15342
     15337     15340     15343     15338     15337     15339     15338     15337     15340
     15339     15337     15340     15341     15340     15342     15341     15340     15343
     15342     15340     15343     15344     15347     15348     15344     15347     15349
     15344     15347     15350     15345     15344     15346     15345     15344     15347
     15346     15344     15347     15347     15350     15351     15347     15350     15352
     15347     15350     15353     15348     15347     15349     15348     15347     15350
     15349     15347     15350     15350     15353     15354     15350     15353     15355
     15350     15353     15356     15351     15350     15352     15351     15350     15353
     15352     15350     15353     15353     15356     15357     15353     15356     15358
     15353     15356     15359     15354     15353     15355     15354     15353     15356
     15355     15353     15356     15356     15359     15360     15356     15359     15361
     15356     15359     15362     15357     15356     15358     15357     15356     15359
     15358     15356     15359     15359     15362     15363     15359     15362     15364
     15359     15362     15365     15360     15359     15361     15360     15359     15362
     15361     15359     15362     15362     15365     15366     15362     15365     15367
     15362     15365     15368     15363     15362     15364     15363     15362     15365
     15364     15362     15365     15365     15368     15369     15365     15368     15370
     15365     15368     15371     15366     15365     15367     15366     15365     15368
     15367     15365     15368     15368     15371     15372     15368     15371     15373
     15368     15371     15374     15369     15368     15370     15369     15368     15371
     15370     15368     15371     15371     15374     15375     15371     15374     15376
     15371     15374     15377     15372     15371     15373     15372     15371     15374
     15373     15371     15374     15374     15377     15378     15374     15377     15379
     15374     15377     15380     15375     15374     15376     15375     15374     15377
     15376     15374     15377     15377     15380     15381     15377     15380     15382
     15377     15380     15383     15378     15377     15379     15378     15377     15380
     15379     15377     15380     15380     15383     15384     15380     15383     15385
     15380     15383     15386     15381     15380     15382     15381     15380     15383
     15382     15380     15383     15384     15383     15385     15384     15383     15386
     15385     15383     15386     15387     15391     15392     15387     15391     15393
     15387     15391     15394     15388     15387     15389     15388     15387     15390
     15388     15387     15391     15389     15387     15390     15389     15387     15391
     15390     15387     15391     15391     15394     15395     15391     15394     15396
     15391     15394     15401     15392     15391     15393     15392     15391     15394
     15393     15391     15394     15394     15401     15397     15395     15394     15396
     15395     15394     15401     15396     15394     15401     15397     15400     15402
     15398     15397     15399     15398     15397     15400     15398     15397     15401
     15399     15397     15400     15399     15397     15401     15400     15397     15401
     15400     15402     15403     15400     15402     15404     15400     15402     15405
     15402     15405     15406     15402     15405     15407     15402     15405     15413
     15403     15402     15404     15403     15402     15405     15404     15402     15405
     15405     15407     15408     15405     15413     15414     15405     15413     15415
     15405     15413     15416     15406     15405     15407     15406     15405     15413
     15407     15405     15413     15407     15408     15409     15407     15408     15410
     15408     15410     15411     15408     15410     15412     15408     15410     15422
     15409     15408     15410     15410     15422     15423     15410     15422     15424
     15410     15422     15425     15411     15410     15412     15411     15410     15422
     15412     15410     15422     15413     15416     15417     15414     15413     15415
     15414     15413     15416     15415     15413     15416     15416     15417     15418
     15416     15417     15419     15417     15419     15420     15417     15419     15421
     15417     15419     15466     15418     15417     15419     15419     15466     15467
     15419     15466     15468     15419     15466     15469     15420     15419     15421
     15420     15419     15466     15421     15419     15466     15422     15425     15426
     15422     15425     15427     15422     15425     15428     15423     15422     15424
     15423     15422     15425     15424     15422     15425     15425     15428     15429
     15425     15428     15430     15425     15428     15431     15426     15425     15427
     15426     15425     15428     15427     15425     15428     15428     15431     15432
     15428     15431     15433     15428     15431     15434     15429     15428     15430
     15429     15428     15431     15430     15428     15431     15431     15434     15435
     15431     15434     15436     15431     15434     15437     15432     15431     15433
     15432     15431     15434     15433     15431     15434     15434     15437     15438
     15434     15437     15439     15434     15437     15440     15435     15434     15436
     15435     15434     15437     15436     15434     15437     15437     15440     15441
     15437     15440     15442     15437     15440     15445     15438     15437     15439
     15438     15437     15440     15439     15437     15440     15440     15442     15443
     15440     15442     15444     15440     15442     15445     15440     15445     15442
     15440     15445     15446     15440     15445     15447     15441     15440     15442
     15441     15440     15445     15442     15440     15445     15442     15445     15446
     15442     15445     15447     15443     15442     15444     15443     15442     15445
     15444     15442     15445     15445     15447     15448     15445     15447     15449
     15445     15447     15450     15446     15445     15447     15447     15450     15451
     15447     15450     15452     15447     15450     15453     15448     15447     15449
     15448     15447     15450     15449     15447     15450     15450     15453     15454
     15450     15453     15455     15450     15453     15456     15451     15450     15452
     15451     15450     15453     15452     15450     15453     15453     15456     15457
     15453     15456     15458     15453     15456     15459     15454     15453     15455
     15454     15453     15456     15455     15453     15456     15456     15459     15460
     15456     15459     15461     15456     15459     15462     15457     15456     15458
     15457     15456     15459     15458     15456     15459     15459     15462     15463
     15459     15462     15464     15459     15462     15465     15460     15459     15461
     15460     15459     15462     15461     15459     15462     15463     15462     15464
     15463     15462     15465     15464     15462     15465     15466     15469     15470
     15466     15469     15471     15466     15469     15472     15467     15466     15468
     15467     15466     15469     15468     15466     15469     15469     15472     15473
     15469     15472     15474     15469     15472     15475     15470     15469     15471
     15470     15469     15472     15471     15469     15472     15472     15475     15476
     15472     15475     15477     15472     15475     15478     15473     15472     15474
     15473     15472     15475     15474     15472     15475     15475     15478     15479
     15475     15478     15480     15475     15478     15481     15476     15475     15477
     15476     15475     15478     15477     15475     15478     15478     15481     15482
     15478     15481     15483     15478     15481     15484     15479     15478     15480
     15479     15478     15481     15480     15478     15481     15481     15484     15485
     15481     15484     15486     15481     15484     15487     15482     15481     15483
     15482     15481     15484     15483     15481     15484     15484     15487     15488
     15484     15487     15489     15484     15487     15490     15485     15484     15486
     15485     15484     15487     15486     15484     15487     15487     15490     15491
     15487     15490     15492     15487     15490     15493     15488     15487     15489
     15488     15487     15490     15489     15487     15490     15490     15493     15494
     15490     15493     15495     15490     15493     15496     15491     15490     15492
     15491     15490     15493     15492     15490     15493     15493     15496     15497
     15493     15496     15498     15493     15496     15499     15494     15493     15495
     15494     15493     15496     15495     15493     15496     15496     15499     15500
     15496     15499     15501     15496     15499     15502     15497     15496     15498
     15497     15496     15499     15498     15496     15499     15499     15502     15503
     15499     15502     15504     15499     15502     15505     15500     15499     15501
     15500     15499     15502     15501     15499     15502     15502     15505     15506
     15502     15505     15507     15502     15505     15508     15503     15502     15504
     15503     15502     15505     15504     15502     15505     15506     15505     15507
     15506     15505     15508     15507     15505     15508     15509     15513     15514
     15509     15513     15515     15509     15513     15516     15510     15509     15511
     15510     15509     15512     15510     15509     15513     15511     15509     15512
     15511     15509     15513     15512     15509     15513     15513     15516     15517
     15513     15516     15518     15513     15516     15523     15514     15513     15515
     15514     15513     15516     15515     15513     15516     15516     15523     15519
     15517     15516     15518     15517     15516     15523     15518     15516     15523
     15519     15522     15524     15520     15519     15521     15520     15519     15522
     15520     15519     15523     15521     15519     15522     15521     15519     15523
     15522     15519     15523     15522     15524     15525     15522     15524     15526
     15522     15524     15527     15524     15527     15528     15524     15527     15529
     15524     15527     15535     15525     15524     15526     15525     15524     15527
     15526     15524     15527     15527     15529     15530     15527     15535     15536
     15527     15535     15537     15527     15535     15538     15528     15527     15529
     15528     15527     15535     15529     15527     15535     15529     15530     15531
     15529     15530     15532     15530     15532     15533     15530     15532     15534
     15530     15532     15544     15531     15530     15532     15532     15544     15545
     15532     15544     15546     15532     15544     15547     15533     15532     15534
     15533     15532     15544     15534     15532     15544     15535     15538     15539
     15536     15535     15537     15536     15535     15538     15537     15535     15538
     15538     15539     15540     15538     15539     15541     15539     15541     15542
     15539     15541     15543     15539     15541     15588     15540     15539     15541
     15541     15588     15589     15541     15588     15590     15541     15588     15591
     15542     15541     15543     15542     15541     15588     15543     15541     15588
     15544     15547     15548     15544     15547     15549     15544     15547     15550
     15545     15544     15546     15545     15544     15547     15546     15544     15547
     15547     15550     15551     15547     15550     15552     15547     15550     15553
     15548     15547     15549     15548     15547     15550     15549     15547     15550
     15550     15553     15554     15550     15553     15555     15550     15553     15556
     15551     15550     15552     15551     15550     15553     15552     15550     15553
     15553     15556     15557     15553     15556     15558     15553     15556     15559
     15554     15553     15555     15554     15553     15556     15555     15553     15556
     15556     15559     15560     15556     15559     15561     15556     15559     15562
     15557     15556     15558     15557     15556     15559     15558     15556     15559
     15559     15562     15563     15559     15562     15564     15559     15562     15567
     15560     15559     15561     15560     15559     15562     15561     15559     15562
     15562     15564     15565     15562     15564     15566     15562     15564     15567
     15562     15567     15564     15562     15567     15568     15562     15567     15569
     15563     15562     15564     15563     15562     15567     15564     15562     15567
     15564     15567     15568     15564     15567     15569     15565     15564     15566
     15565     15564     15567     15566     15564     15567     15567     15569     15570
     15567     15569     15571     15567     15569     15572     15568     15567     15569
     15569     15572     15573     15569     15572     15574     15569     15572     15575
     15570     15569     15571     15570     15569     15572     15571     15569     15572
     15572     15575     15576     15572     15575     15577     15572     15575     15578
     15573     15572     15574     15573     15572     15575     15574     15572     15575
     15575     15578     15579     15575     15578     15580     15575     15578     15581
     15576     15575     15577     15576     15575     15578     15577     15575     15578
     15578     15581     15582     15578     15581     15583     15578     15581     15584
     15579     15578     15580     15579     15578     15581     15580     15578     15581
     15581     15584     15585     15581     15584     15586     15581     15584     15587
     15582     15581     15583     15582     15581     15584     15583     15581     15584
     15585     15584     15586     15585     15584     15587     15586     15584     15587
     15588     15591     15592     15588     15591     15593     15588     15591     15594
     15589     15588     15590     15589     15588     15591     15590     15588     15591
     15591     15594     15595     15591     15594     15596     15591     15594     15597
     15592     15591     15593     15592     15591     15594     15593     15591     15594
     15594     15597     15598     15594     15597     15599     15594     15597     15600
     15595     15594     15596     15595     15594     15597     15596     15594     15597
     15597     15600     15601     15597     15600     15602     15597     15600     15603
     15598     15597     15599     15598     15597     15600     15599     15597     15600
     15600     15603     15604     15600     15603     15605     15600     15603     15606
     15601     15600     15602     15601     15600     15603     15602     15600     15603
     15603     15606     15607     15603     15606     15608     15603     15606     15609
     15604     15603     15605     15604     15603     15606     15605     15603     15606
     15606     15609     15610     15606     15609     15611     15606     15609     15612
     15607     15606     15608     15607     15606     15609     15608     15606     15609
     15609     15612     15613     15609     15612     15614     15609     15612     15615
     15610     15609     15611     15610     15609     15612     15611     15609     15612
     15612     15615     15616     15612     15615     15617     15612     15615     15618
     15613     15612     15614     15613     15612     15615     15614     15612     15615
     15615     15618     15619     15615     15618     15620     15615     15618     15621
     15616     15615     15617     15616     15615     15618     15617     15615     15618
     15618     15621     15622     15618     15621     15623     15618     15621     15624
     15619     15618     15620     15619     15618     15621     15620     15618     15621
     15621     15624     15625     15621     15624     15626     15621     15624     15627
     15622     15621     15623     15622     15621     15624     15623     15621     15624
     15624     15627     15628     15624     15627     15629     15624     15627     15630
     15625     15624     15626     15625     15624     15627     15626     15624     15627
     15628     15627     15629     15628     15627     15630     15629     15627     15630
     15631     15635     15636     15631     15635     15637     15631     15635     15638
     15632     15631     15633     15632     15631     15634     15632     15631     15635
     15633     15631     15634     15633     15631     15635     15634     15631     15635
     15635     15638     15639     15635     15638     15640     15635     15638     15645
     15636     15635     15637     15636     15635     15638     15637     15635     15638
     15638     15645     15641     15639     15638     15640     15639     15638     15645
     15640     15638     15645     15641     15644     15646     15642     15641     15643
     15642     15641     15644     15642     15641     15645     15643     15641     15644
     15643     15641     15645     15644     15641     15645     15644     15646     15647
     15644     15646     15648     15644     15646     15649     15646     15649     15650
     15646     15649     15651     15646     15649     15657     15647     15646     15648
     15647     15646     15649     15648     15646     15649     15649     15651     15652
     15649     15657     15658     15649     15657     15659     15649     15657     15660
     15650     15649     15651     15650     15649     15657     15651     15649     15657
     15651     15652     15653     15651     15652     15654     15652     15654     15655
     15652     15654     15656     15652     15654     15666     15653     15652     15654
     15654     15666     15667     15654     15666     15668     15654     15666     15669
     15655     15654     15656     15655     15654     15666     15656     15654     15666
     15657     15660     15661     15658     15657     15659     15658     15657     15660
     15659     15657     15660     15660     15661     15662     15660     15661     15663
     15661     15663     15664     15661     15663     15665     15661     15663     15710
     15662     15661     15663     15663     15710     15711     15663     15710     15712
     15663     15710     15713     15664     15663     15665     15664     15663     15710
     15665     15663     15710     15666     15669     15670     15666     15669     15671
     15666     15669     15672     15667     15666     15668     15667     15666     15669
     15668     15666     15669     15669     15672     15673     15669     15672     15674
     15669     15672     15675     15670     15669     15671     15670     15669     15672
     15671     15669     15672     15672     15675     15676     15672     15675     15677
     15672     15675     15678     15673     15672     15674     15673     15672     15675
     15674     15672     15675     15675     15678     15679     15675     15678     15680
     15675     15678     15681     15676     15675     15677     15676     15675     15678
     15677     15675     15678     15678     15681     15682     15678     15681     15683
     15678     15681     15684     15679     15678     15680     15679     15678     15681
     15680     15678     15681     15681     15684     15685     15681     15684     15686
     15681     15684     15689     15682     15681     15683     15682     15681     15684
     15683     15681     15684     15684     15686     15687     15684     15686     15688
     15684     15686     15689     15684     15689     15686     15684     15689     15690
     15684     15689     15691     15685     15684     15686     15685     15684     15689
     15686     15684     15689     15686     15689     15690     15686     15689     15691
     15687     15686     15688     15687     15686     15689     15688     15686     15689
     15689     15691     15692     15689     15691     15693     15689     15691     15694
     15690     15689     15691     15691     15694     15695     15691     15694     15696
     15691     15694     15697     15692     15691     15693     15692     15691     15694
     15693     15691     15694     15694     15697     15698     15694     15697     15699
     15694     15697     15700     15695     15694     15696     15695     15694     15697
     15696     15694     15697     15697     15700     15701     15697     15700     15702
     15697     15700     15703     15698     15697     15699     15698     15697     15700
     15699     15697     15700     15700     15703     15704     15700     15703     15705
     15700     15703     15706     15701     15700     15702     15701     15700     15703
     15702     15700     15703     15703     15706     15707     15703     15706     15708
     15703     15706     15709     15704     15703     15705     15704     15703     15706
     15705     15703     15706     15707     15706     15708     15707     15706     15709
     15708     15706     15709     15710     15713     15714     15710     15713     15715
     15710     15713     15716     15711     15710     15712     15711     15710     15713
     15712     15710     15713     15713     15716     15717     15713     15716     15718
     15713     15716     15719     15714     15713     15715     15714     15713     15716
     15715     15713     15716     15716     15719     15720     15716     15719     15721
     15716     15719     15722     15717     15716     15718     15717     15716     15719
     15718     15716     15719     15719     15722     15723     15719     15722     15724
     15719     15722     15725     15720     15719     15721     15720     15719     15722
     15721     15719     15722     15722     15725     15726     15722     15725     15727
     15722     15725     15728     15723     15722     15724     15723     15722     15725
     15724     15722     15725     15725     15728     15729     15725     15728     15730
     15725     15728     15731     15726     15725     15727     15726     15725     15728
     15727     15725     15728     15728     15731     15732     15728     15731     15733
     15728     15731     15734     15729     15728     15730     15729     15728     15731
     15730     15728     15731     15731     15734     15735     15731     15734     15736
     15731     15734     15737     15732     15731     15733     15732     15731     15734
     15733     15731     15734     15734     15737     15738     15734     15737     15739
     15734     15737     15740     15735     15734     15736     15735     15734     15737
     15736     15734     15737     15737     15740     15741     15737     15740     15742
     15737     15740     15743     15738     15737     15739     15738     15737     15740
     15739     15737     15740     15740     15743     15744     15740     15743     15745
     15740     15743     15746     15741     15740     15742     15741     15740     15743
     15742     15740     15743     15743     15746     15747     15743     15746     15748
     15743     15746     15749     15744     15743     15745     15744     15743     15746
     15745     15743     15746     15746     15749     15750     15746     15749     15751
     15746     15749     15752     15747     15746     15748     15747     15746     15749
     15748     15746     15749     15750     15749     15751     15750     15749     15752
     15751     15749     15752     15753     15757     15758     15753     15757     15759
     15753     15757     15760     15754     15753     15755     15754     15753     15756
     15754     15753     15757     15755     15753     15756     15755     15753     15757
     15756     15753     15757     15757     15760     15761     15757     15760     15762
     15757     15760     15767     15758     15757     15759     15758     15757     15760
     15759     15757     15760     15760     15767     15763     15761     15760     15762
     15761     15760     15767     15762     15760     15767     15763     15766     15768
     15764     15763     15765     15764     15763     15766     15764     15763     15767
     15765     15763     15766     15765     15763     15767     15766     15763     15767
     15766     15768     15769     15766     15768     15770     15766     15768     15771
     15768     15771     15772     15768     15771     15773     15768     15771     15779
     15769     15768     15770     15769     15768     15771     15770     15768     15771
     15771     15773     15774     15771     15779     15780     15771     15779     15781
     15771     15779     15782     15772     15771     15773     15772     15771     15779
     15773     15771     15779     15773     15774     15775     15773     15774     15776
     15774     15776     15777     15774     15776     15778     15774     15776     15788
     15775     15774     15776     15776     15788     15789     15776     15788     15790
     15776     15788     15791     15777     15776     15778     15777     15776     15788
     15778     15776     15788     15779     15782     15783     15780     15779     15781
     15780     15779     15782     15781     15779     15782     15782     15783     15784
     15782     15783     15785     15783     15785     15786     15783     15785     15787
     15783     15785     15832     15784     15783     15785     15785     15832     15833
     15785     15832     15834     15785     15832     15835     15786     15785     15787
     15786     15785     15832     15787     15785     15832     15788     15791     15792
     15788     15791     15793     15788     15791     15794     15789     15788     15790
     15789     15788     15791     15790     15788     15791     15791     15794     15795
     15791     15794     15796     15791     15794     15797     15792     15791     15793
     15792     15791     15794     15793     15791     15794     15794     15797     15798
     15794     15797     15799     15794     15797     15800     15795     15794     15796
     15795     15794     15797     15796     15794     15797     15797     15800     15801
     15797     15800     15802     15797     15800     15803     15798     15797     15799
     15798     15797     15800     15799     15797     15800     15800     15803     15804
     15800     15803     15805     15800     15803     15806     15801     15800     15802
     15801     15800     15803     15802     15800     15803     15803     15806     15807
     15803     15806     15808     15803     15806     15811     15804     15803     15805
     15804     15803     15806     15805     15803     15806     15806     15808     15809
     15806     15808     15810     15806     15808     15811     15806     15811     15808
     15806     15811     15812     15806     15811     15813     15807     15806     15808
     15807     15806     15811     15808     15806     15811     15808     15811     15812
     15808     15811     15813     15809     15808     15810     15809     15808     15811
     15810     15808     15811     15811     15813     15814     15811     15813     15815
     15811     15813     15816     15812     15811     15813     15813     15816     15817
     15813     15816     15818     15813     15816     15819     15814     15813     15815
     15814     15813     15816     15815     15813     15816     15816     15819     15820
     15816     15819     15821     15816     15819     15822     15817     15816     15818
     15817     15816     15819     15818     15816     15819     15819     15822     15823
     15819     15822     15824     15819     15822     15825     15820     15819     15821
     15820     15819     15822     15821     15819     15822     15822     15825     15826
     15822     15825     15827     15822     15825     15828     15823     15822     15824
     15823     15822     15825     15824     15822     15825     15825     15828     15829
     15825     15828     15830     15825     15828     15831     15826     15825     15827
     15826     15825     15828     15827     15825     15828     15829     15828     15830
     15829     15828     15831     15830     15828     15831     15832     15835     15836
     15832     15835     15837     15832     15835     15838     15833     15832     15834
     15833     15832     15835     15834     15832     15835     15835     15838     15839
     15835     15838     15840     15835     15838     15841     15836     15835     15837
     15836     15835     15838     15837     15835     15838     15838     15841     15842
     15838     15841     15843     15838     15841     15844     15839     15838     15840
     15839     15838     15841     15840     15838     15841     15841     15844     15845
     15841     15844     15846     15841     15844     15847     15842     15841     15843
     15842     15841     15844     15843     15841     15844     15844     15847     15848
     15844     15847     15849     15844     15847     15850     15845     15844     15846
     15845     15844     15847     15846     15844     15847     15847     15850     15851
     15847     15850     15852     15847     15850     15853     15848     15847     15849
     15848     15847     15850     15849     15847     15850     15850     15853     15854
     15850     15853     15855     15850     15853     15856     15851     15850     15852
     15851     15850     15853     15852     15850     15853     15853     15856     15857
     15853     15856     15858     15853     15856     15859     15854     15853     15855
     15854     15853     15856     15855     15853     15856     15856     15859     15860
     15856     15859     15861     15856     15859     15862     15857     15856     15858
     15857     15856     15859     15858     15856     15859     15859     15862     15863
     15859     15862     15864     15859     15862     15865     15860     15859     15861
     15860     15859     15862     15861     15859     15862     15862     15865     15866
     15862     15865     15867     15862     15865     15868     15863     15862     15864
     15863     15862     15865     15864     15862     15865     15865     15868     15869
     15865     15868     15870     15865     15868     15871     15866     15865     15867
     15866     15865     15868     15867     15865     15868     15868     15871     15872
     15868     15871     15873     15868     15871     15874     15869     15868     15870
     15869     15868     15871     15870     15868     15871     15872     15871     15873
     15872     15871     15874     15873     15871     15874     15875     15879     15880
     15875     15879     15881     15875     15879     15882     15876     15875     15877
     15876     15875     15878     15876     15875     15879     15877     15875     15878
     15877     15875     15879     15878     15875     15879     15879     15882     15883
     15879     15882     15884     15879     15882     15889     15880     15879     15881
     15880     15879     15882     15881     15879     15882     15882     15889     15885
     15883     15882     15884     15883     15882     15889     15884     15882     15889
     15885     15888     15890     15886     15885     15887     15886     15885     15888
     15886     15885     15889     15887     15885     15888     15887     15885     15889
     15888     15885     15889     15888     15890     15891     15888     15890     15892
     15888     15890     15893     15890     15893     15894     15890     15893     15895
     15890     15893     15901     15891     15890     15892     15891     15890     15893
     15892     15890     15893     15893     15895     15896     15893     15901     15902
     15893     15901     15903     15893     15901     15904     15894     15893     15895
     15894     15893     15901     15895     15893     15901     15895     15896     15897
     15895     15896     15898     15896     15898     15899     15896     15898     15900
     15896     15898     15910     15897     15896     15898     15898     15910     15911
     15898     15910     15912     15898     15910     15913     15899     15898     15900
     15899     15898     15910     15900     15898     15910     15901     15904     15905
     15902     15901     15903     15902     15901     15904     15903     15901     15904
     15904     15905     15906     15904     15905     15907     15905     15907     15908
     15905     15907     15909     15905     15907     15957     15906     15905     15907
     15907     15957     15958     15907     15957     15959     15907     15957     15960
     15908     15907     15909     15908     15907     15957     15909     15907     15957
     15910     15913     15914     15910     15913     15915     15910     15913     15916
     15911     15910     15912     15911     15910     15913     15912     15910     15913
     15913     15916     15917     15913     15916     15918     15913     15916     15919
     15914     15913     15915     15914     15913     15916     15915     15913     15916
     15916     15919     15920     15916     15919     15921     15916     15919     15922
     15917     15916     15918     15917     15916     15919     15918     15916     15919
     15919     15922     15923     15919     15922     15924     15919     15922     15925
     15920     15919     15921     15920     15919     15922     15921     15919     15922
     15922     15925     15926     15922     15925     15927     15922     15925     15928
     15923     15922     15924     15923     15922     15925     15924     15922     15925
     15925     15928     15929     15925     15928     15930     15926     15925     15927
     15926     15925     15928     15927     15925     15928     15928     15930     15931
     15928     15930     15932     15929     15928     15930     15930     15932     15933
     15930     15932     15934     15930     15932     15935     15931     15930     15932
     15932     15935     15936     15932     15935     15937     15932     15935     15938
     15933     15932     15934     15933     15932     15935     15934     15932     15935
     15935     15938     15939     15935     15938     15940     15935     15938     15941
     15936     15935     15937     15936     15935     15938     15937     15935     15938
     15938     15941     15942     15938     15941     15943     15938     15941     15944
     15939     15938     15940     15939     15938     15941     15940     15938     15941
     15941     15944     15945     15941     15944     15946     15941     15944     15947
     15942     15941     15943     15942     15941     15944     15943     15941     15944
     15944     15947     15948     15944     15947     15949     15944     15947     15950
     15945     15944     15946     15945     15944     15947     15946     15944     15947
     15947     15950     15951     15947     15950     15952     15947     15950     15953
     15948     15947     15949     15948     15947     15950     15949     15947     15950
     15950     15953     15954     15950     15953     15955     15950     15953     15956
     15951     15950     15952     15951     15950     15953     15952     15950     15953
     15954     15953     15955     15954     15953     15956     15955     15953     15956
     15957     15960     15961     15957     15960     15962     15957     15960     15963
     15958     15957     15959     15958     15957     15960     15959     15957     15960
     15960     15963     15964     15960     15963     15965     15960     15963     15966
     15961     15960     15962     15961     15960     15963     15962     15960     15963
     15963     15966     15967     15963     15966     15968     15963     15966     15969
     15964     15963     15965     15964     15963     15966     15965     15963     15966
     15966     15969     15970     15966     15969     15971     15966     15969     15972
     15967     15966     15968     15967     15966     15969     15968     15966     15969
     15969     15972     15973     15969     15972     15974     15969     15972     15975
     15970     15969     15971     15970     15969     15972     15971     15969     15972
     15972     15975     15976     15972     15975     15977     15972     15975     15978
     15973     15972     15974     15973     15972     15975     15974     15972     15975
     15975     15978     15979     15975     15978     15980     15975     15978     15981
     15976     15975     15977     15976     15975     15978     15977     15975     15978
     15978     15981     15982     15978     15981     15983     15978     15981     15984
     15979     15978     15980     15979     15978     15981     15980     15978     15981
     15981     15984     15985     15981     15984     15986     15981     15984     15987
     15982     15981     15983     15982     15981     15984     15983     15981     15984
     15984     15987     15988     15984     15987     15989     15984     15987     15990
     15985     15984     15986     15985     15984     15987     15986     15984     15987
     15987     15990     15991     15987     15990     15992     15987     15990     15993
     15988     15987     15989     15988     15987     15990     15989     15987     15990
     15990     15993     15994     15990     15993     15995     15990     15993     15996
     15991     15990     15992     15991     15990     15993     15992     15990     15993
     15993     15996     15997     15993     15996     15998     15993     15996     15999
     15994     15993     15995     15994     15993     15996     15995     15993     15996
     15997     15996     15998     15997     15996     15999     15998     15996     15999
     16000     16003     16004     16000     16005     16006     16000     16005     16007
     16000     16005     16009     16001     16000     16002     16001     16000     16003
     16001     16000     16005     16002     16000     16003     16002     16000     16005
     16003     16000     16005     16005     16007     16008     16005     16009     16010
     16005     16009     16011     16005     16009     16016     16006     16005     16007
     16006     16005     16009     16007     16005     16009     16009     16016     16012
     16010     16009     16011     16010     16009     16016     16011     16009     16016
     16012     16015     16017     16013     16012     16014     16013     16012     16015
     16013     16012     16016     16014     16012     16015     16014     16012     16016
     16015     16012     16016     16015     16017     16018     16015     16017     16019
     16015     16017     16020     16017     16020     16021     16017     16020     16022
     16017     16020     16028     16018     16017     16019     16018     16017     16020
     16019     16017     16020     16020     16022     16023     16020     16028     16029
     16020     16028     16030     16020     16028     16031     16021     16020     16022
     16021     16020     16028     16022     16020     16028     16022     16023     16024
     16022     16023     16025     16023     16025     16026     16023     16025     16027
     16023     16025     16037     16024     16023     16025     16025     16037     16038
     16025     16037     16039     16025     16037     16040     16026     16025     16027
     16026     16025     16037     16027     16025     16037     16028     16031     16032
     16029     16028     16030     16029     16028     16031     16030     16028     16031
     16031     16032     16033     16031     16032     16034     16032     16034     16035
     16032     16034     16036     16032     16034     16078     16033     16032     16034
     16034     16078     16079     16034     16078     16080     16034     16078     16081
     16035     16034     16036     16035     16034     16078     16036     16034     16078
     16037     16040     16041     16037     16040     16042     16037     16040     16043
     16038     16037     16039     16038     16037     16040     16039     16037     16040
     16040     16043     16044     16040     16043     16045     16040     16043     16046
     16041     16040     16042     16041     16040     16043     16042     16040     16043
     16043     16046     16047     16043     16046     16048     16043     16046     16049
     16044     16043     16045     16044     16043     16046     16045     16043     16046
     16046     16049     16050     16046     16049     16051     16046     16049     16052
     16047     16046     16048     16047     16046     16049     16048     16046     16049
     16049     16052     16053     16049     16052     16054     16049     16052     16055
     16050     16049     16051     16050     16049     16052     16051     16049     16052
     16052     16055     16056     16052     16055     16057     16053     16052     16054
     16053     16052     16055     16054     16052     16055     16055     16057     16058
     16055     16057     16059     16056     16055     16057     16057     16059     16060
     16057     16059     16061     16057     16059     16062     16058     16057     16059
     16059     16062     16063     16059     16062     16064     16059     16062     16065
     16060     16059     16061     16060     16059     16062     16061     16059     16062
     16062     16065     16066     16062     16065     16067     16062     16065     16068
     16063     16062     16064     16063     16062     16065     16064     16062     16065
     16065     16068     16069     16065     16068     16070     16065     16068     16071
     16066     16065     16067     16066     16065     16068     16067     16065     16068
     16068     16071     16072     16068     16071     16073     16068     16071     16074
     16069     16068     16070     16069     16068     16071     16070     16068     16071
     16071     16074     16075     16071     16074     16076     16071     16074     16077
     16072     16071     16073     16072     16071     16074     16073     16071     16074
     16075     16074     16076     16075     16074     16077     16076     16074     16077
     16078     16081     16082     16078     16081     16083     16078     16081     16084
     16079     16078     16080     16079     16078     16081     16080     16078     16081
     16081     16084     16085     16081     16084     16086     16081     16084     16087
     16082     16081     16083     16082     16081     16084     16083     16081     16084
     16084     16087     16088     16084     16087     16089     16084     16087     16090
     16085     16084     16086     16085     16084     16087     16086     16084     16087
     16087     16090     16091     16087     16090     16092     16087     16090     16093
     16088     16087     16089     16088     16087     16090     16089     16087     16090
     16090     16093     16094     16090     16093     16095     16090     16093     16096
     16091     16090     16092     16091     16090     16093     16092     16090     16093
     16093     16096     16097     16093     16096     16098     16093     16096     16099
     16094     16093     16095     16094     16093     16096     16095     16093     16096
     16096     16099     16100     16096     16099     16101     16096     16099     16102
     16097     16096     16098     16097     16096     16099     16098     16096     16099
     16099     16102     16103     16099     16102     16104     16099     16102     16105
     16100     16099     16101     16100     16099     16102     16101     16099     16102
     16102     16105     16106     16102     16105     16107     16102     16105     16108
     16103     16102     16104     16103     16102     16105     16104     16102     16105
     16105     16108     16109     16105     16108     16110     16105     16108     16111
     16106     16105     16107     16106     16105     16108     16107     16105     16108
     16108     16111     16112     16108     16111     16113     16108     16111     16114
     16109     16108     16110     16109     16108     16111     16110     16108     16111
     16111     16114     16115     16111     16114     16116     16111     16114     16117
     16112     16111     16113     16112     16111     16114     16113     16111     16114
     16114     16117     16118     16114     16117     16119     16114     16117     16120
     16115     16114     16116     16115     16114     16117     16116     16114     16117
     16118     16117     16119     16118     16117     16120     16119     16117     16120
     16121     16127     16124     16121     16132     16133     16121     16132     16134
     16121     16132     16136     16122     16121     16123     16122     16121     16127
     16122     16121     16132     16123     16121     16127     16123     16121     16132
     16124     16128     16129     16125     16124     16126     16125     16124     16127
     16125     16124     16128     16126     16124     16127     16126     16124     16128
     16127     16121     16132     16127     16124     16128     16128     16129     16130
     16128     16129     16131     16128     16129     16164     16129     16164     16165
     16129     16164     16166     16129     16164     16172     16130     16129     16131
     16130     16129     16164     16131     16129     16164     16132     16134     16135
     16132     16136     16137     16132     16136     16138     16132     16136     16142
     16133     16132     16134     16133     16132     16136     16134     16132     16136
     16136     16142     16139     16137     16136     16138     16137     16136     16142
     16138     16136     16142     16139     16143     16144     16140     16139     16141
     16140     16139     16142     16140     16139     16143     16141     16139     16142
     16141     16139     16143     16142     16139     16143     16143     16144     16145
     16143     16144     16146     16143     16144     16147     16144     16147     16148
     16144     16147     16149     16144     16147     16155     16145     16144     16146
     16145     16144     16147     16146     16144     16147     16147     16149     16150
     16147     16155     16156     16147     16155     16157     16147     16155     16158
     16148     16147     16149     16148     16147     16155     16149     16147     16155
     16149     16150     16151     16149     16150     16152     16150     16152     16153
     16150     16152     16154     16150     16152     16181     16151     16150     16152
     16152     16181     16182     16152     16181     16183     16152     16181     16184
     16153     16152     16154     16153     16152     16181     16154     16152     16181
     16155     16158     16159     16156     16155     16157     16156     16155     16158
     16157     16155     16158     16158     16159     16160     16158     16159     16161
     16159     16161     16162     16159     16161     16163     16159     16161     16228
     16160     16159     16161     16161     16228     16229     16161     16228     16230
     16161     16228     16231     16162     16161     16163     16162     16161     16228
     16163     16161     16228     16164     16166     16167     16164     16172     16173
     16164     16172     16174     16164     16172     16175     16165     16164     16166
     16165     16164     16172     16166     16164     16172     16166     16167     16168
     16166     16167     16169     16167     16169     16170     16167     16169     16171
     16167     16169     16271     16168     16167     16169     16169     16271     16272
     16169     16271     16273     16169     16271     16274     16170     16169     16171
     16170     16169     16271     16171     16169     16271     16172     16175     16176
     16173     16172     16174     16173     16172     16175     16174     16172     16175
     16175     16176     16177     16175     16176     16178     16176     16178     16179
     16176     16178     16180     16176     16178     16318     16177     16176     16178
     16178     16318     16319     16178     16318     16320     16178     16318     16321
     16179     16178     16180     16179     16178     16318     16180     16178     16318
     16181     16184     16185     16181     16184     16186     16181     16184     16187
     16182     16181     16183     16182     16181     16184     16183     16181     16184
     16184     16187     16188     16184     16187     16189     16184     16187     16190
     16185     16184     16186     16185     16184     16187     16186     16184     16187
     16187     16190     16191     16187     16190     16192     16187     16190     16193
     16188     16187     16189     16188     16187     16190     16189     16187     16190
     16190     16193     16194     16190     16193     16195     16190     16193     16196
     16191     16190     16192     16191     16190     16193     16192     16190     16193
     16193     16196     16197     16193     16196     16198     16193     16196     16199
     16194     16193     16195     16194     16193     16196     16195     16193     16196
     16196     16199     16200     16196     16199     16201     16196     16199     16202
     16197     16196     16198     16197     16196     16199     16198     16196     16199
     16199     16202     16203     16199     16202     16204     16199     16202     16205
     16200     16199     16201     16200     16199     16202     16201     16199     16202
     16202     16205     16206     16202     16205     16207     16203     16202     16204
     16203     16202     16205     16204     16202     16205     16205     16207     16208
     16205     16207     16209     16206     16205     16207     16207     16209     16210
     16207     16209     16211     16207     16209     16212     16208     16207     16209
     16209     16212     16213     16209     16212     16214     16209     16212     16215
     16210     16209     16211     16210     16209     16212     16211     16209     16212
     16212     16215     16216     16212     16215     16217     16212     16215     16218
     16213     16212     16214     16213     16212     16215     16214     16212     16215
     16215     16218     16219     16215     16218     16220     16215     16218     16221
     16216     16215     16217     16216     16215     16218     16217     16215     16218
     16218     16221     16222     16218     16221     16223     16218     16221     16224
     16219     16218     16220     16219     16218     16221     16220     16218     16221
     16221     16224     16225     16221     16224     16226     16221     16224     16227
     16222     16221     16223     16222     16221     16224     16223     16221     16224
     16225     16224     16226     16225     16224     16227     16226     16224     16227
     16228     16231     16232     16228     16231     16233     16228     16231     16234
     16229     16228     16230     16229     16228     16231     16230     16228     16231
     16231     16234     16235     16231     16234     16236     16231     16234     16237
     16232     16231     16233     16232     16231     16234     16233     16231     16234
     16234     16237     16238     16234     16237     16239     16234     16237     16240
     16235     16234     16236     16235     16234     16237     16236     16234     16237
     16237     16240     16241     16237     16240     16242     16237     16240     16243
     16238     16237     16239     16238     16237     16240     16239     16237     16240
     16240     16243     16244     16240     16243     16245     16240     16243     16246
     16241     16240     16242     16241     16240     16243     16242     16240     16243
     16243     16246     16247     16243     16246     16248     16243     16246     16249
     16244     16243     16245     16244     16243     16246     16245     16243     16246
     16246     16249     16250     16246     16249     16251     16246     16249     16252
     16247     16246     16248     16247     16246     16249     16248     16246     16249
     16249     16252     16253     16249     16252     16254     16249     16252     16255
     16250     16249     16251     16250     16249     16252     16251     16249     16252
     16252     16255     16256     16252     16255     16257     16252     16255     16258
     16253     16252     16254     16253     16252     16255     16254     16252     16255
     16255     16258     16259     16255     16258     16260     16255     16258     16261
     16256     16255     16257     16256     16255     16258     16257     16255     16258
     16258     16261     16262     16258     16261     16263     16258     16261     16264
     16259     16258     16260     16259     16258     16261     16260     16258     16261
     16261     16264     16265     16261     16264     16266     16261     16264     16267
     16262     16261     16263     16262     16261     16264     16263     16261     16264
     16264     16267     16268     16264     16267     16269     16264     16267     16270
     16265     16264     16266     16265     16264     16267     16266     16264     16267
     16268     16267     16269     16268     16267     16270     16269     16267     16270
     16271     16274     16275     16271     16274     16276     16271     16274     16277
     16272     16271     16273     16272     16271     16274     16273     16271     16274
     16274     16277     16278     16274     16277     16279     16274     16277     16280
     16275     16274     16276     16275     16274     16277     16276     16274     16277
     16277     16280     16281     16277     16280     16282     16277     16280     16283
     16278     16277     16279     16278     16277     16280     16279     16277     16280
     16280     16283     16284     16280     16283     16285     16280     16283     16286
     16281     16280     16282     16281     16280     16283     16282     16280     16283
     16283     16286     16287     16283     16286     16288     16283     16286     16289
     16284     16283     16285     16284     16283     16286     16285     16283     16286
     16286     16289     16290     16286     16289     16291     16286     16289     16292
     16287     16286     16288     16287     16286     16289     16288     16286     16289
     16289     16292     16293     16289     16292     16294     16289     16292     16295
     16290     16289     16291     16290     16289     16292     16291     16289     16292
     16292     16295     16296     16292     16295     16297     16293     16292     16294
     16293     16292     16295     16294     16292     16295     16295     16297     16298
     16295     16297     16299     16296     16295     16297     16297     16299     16300
     16297     16299     16301     16297     16299     16302     16298     16297     16299
     16299     16302     16303     16299     16302     16304     16299     16302     16305
     16300     16299     16301     16300     16299     16302     16301     16299     16302
     16302     16305     16306     16302     16305     16307     16302     16305     16308
     16303     16302     16304     16303     16302     16305     16304     16302     16305
     16305     16308     16309     16305     16308     16310     16305     16308     16311
     16306     16305     16307     16306     16305     16308     16307     16305     16308
     16308     16311     16312     16308     16311     16313     16308     16311     16314
     16309     16308     16310     16309     16308     16311     16310     16308     16311
     16311     16314     16315     16311     16314     16316     16311     16314     16317
     16312     16311     16313     16312     16311     16314     16313     16311     16314
     16315     16314     16316     16315     16314     16317     16316     16314     16317
     16318     16321     16322     16318     16321     16323     16318     16321     16324
     16319     16318     16320     16319     16318     16321     16320     16318     16321
     16321     16324     16325     16321     16324     16326     16321     16324     16327
     16322     16321     16323     16322     16321     16324     16323     16321     16324
     16324     16327     16328     16324     16327     16329     16324     16327     16330
     16325     16324     16326     16325     16324     16327     16326     16324     16327
     16327     16330     16331     16327     16330     16332     16327     16330     16333
     16328     16327     16329     16328     16327     16330     16329     16327     16330
     16330     16333     16334     16330     16333     16335     16330     16333     16336
     16331     16330     16332     16331     16330     16333     16332     16330     16333
     16333     16336     16337     16333     16336     16338     16333     16336     16339
     16334     16333     16335     16334     16333     16336     16335     16333     16336
     16336     16339     16340     16336     16339     16341     16336     16339     16342
     16337     16336     16338     16337     16336     16339     16338     16336     16339
     16339     16342     16343     16339     16342     16344     16339     16342     16345
     16340     16339     16341     16340     16339     16342     16341     16339     16342
     16342     16345     16346     16342     16345     16347     16342     16345     16348
     16343     16342     16344     16343     16342     16345     16344     16342     16345
     16345     16348     16349     16345     16348     16350     16345     16348     16351
     16346     16345     16347     16346     16345     16348     16347     16345     16348
     16348     16351     16352     16348     16351     16353     16348     16351     16354
     16349     16348     16350     16349     16348     16351     16350     16348     16351
     16351     16354     16355     16351     16354     16356     16351     16354     16357
     16352     16351     16353     16352     16351     16354     16353     16351     16354
     16354     16357     16358     16354     16357     16359     16354     16357     16360
     16355     16354     16356     16355     16354     16357     16356     16354     16357
     16358     16357     16359     16358     16357     16360     16359     16357     16360
     16361     16365     16366     16361     16365     16367     16361     16365     16368
     16362     16361     16363     16362     16361     16364     16362     16361     16365
     16363     16361     16364     16363     16361     16365     16364     16361     16365
     16365     16368     16369     16365     16368     16370     16365     16368     16375
     16366     16365     16367     16366     16365     16368     16367     16365     16368
     16368     16375     16371     16369     16368     16370     16369     16368     16375
     16370     16368     16375     16371     16374     16376     16372     16371     16373
     16372     16371     16374     16372     16371     16375     16373     16371     16374
     16373     16371     16375     16374     16371     16375     16374     16376     16377
     16374     16376     16378     16374     16376     16379     16376     16379     16380
     16376     16379     16381     16376     16379     16387     16377     16376     16378
     16377     16376     16379     16378     16376     16379     16379     16381     16382
     16379     16387     16388     16379     16387     16389     16379     16387     16390
     16380     16379     16381     16380     16379     16387     16381     16379     16387
     16381     16382     16383     16381     16382     16384     16382     16384     16385
     16382     16384     16386     16382     16384     16396     16383     16382     16384
     16384     16396     16397     16384     16396     16398     16384     16396     16399
     16385     16384     16386     16385     16384     16396     16386     16384     16396
     16387     16390     16391     16388     16387     16389     16388     16387     16390
     16389     16387     16390     16390     16391     16392     16390     16391     16393
     16391     16393     16394     16391     16393     16395     16391     16393     16440
     16392     16391     16393     16393     16440     16441     16393     16440     16442
     16393     16440     16443     16394     16393     16395     16394     16393     16440
     16395     16393     16440     16396     16399     16400     16396     16399     16401
     16396     16399     16402     16397     16396     16398     16397     16396     16399
     16398     16396     16399     16399     16402     16403     16399     16402     16404
     16399     16402     16405     16400     16399     16401     16400     16399     16402
     16401     16399     16402     16402     16405     16406     16402     16405     16407
     16402     16405     16408     16403     16402     16404     16403     16402     16405
     16404     16402     16405     16405     16408     16409     16405     16408     16410
     16405     16408     16411     16406     16405     16407     16406     16405     16408
     16407     16405     16408     16408     16411     16412     16408     16411     16413
     16408     16411     16414     16409     16408     16410     16409     16408     16411
     16410     16408     16411     16411     16414     16415     16411     16414     16416
     16411     16414     16419     16412     16411     16413     16412     16411     16414
     16413     16411     16414     16414     16416     16417     16414     16416     16418
     16414     16416     16419     16414     16419     16416     16414     16419     16420
     16414     16419     16421     16415     16414     16416     16415     16414     16419
     16416     16414     16419     16416     16419     16420     16416     16419     16421
     16417     16416     16418     16417     16416     16419     16418     16416     16419
     16419     16421     16422     16419     16421     16423     16419     16421     16424
     16420     16419     16421     16421     16424     16425     16421     16424     16426
     16421     16424     16427     16422     16421     16423     16422     16421     16424
     16423     16421     16424     16424     16427     16428     16424     16427     16429
     16424     16427     16430     16425     16424     16426     16425     16424     16427
     16426     16424     16427     16427     16430     16431     16427     16430     16432
     16427     16430     16433     16428     16427     16429     16428     16427     16430
     16429     16427     16430     16430     16433     16434     16430     16433     16435
     16430     16433     16436     16431     16430     16432     16431     16430     16433
     16432     16430     16433     16433     16436     16437     16433     16436     16438
     16433     16436     16439     16434     16433     16435     16434     16433     16436
     16435     16433     16436     16437     16436     16438     16437     16436     16439
     16438     16436     16439     16440     16443     16444     16440     16443     16445
     16440     16443     16446     16441     16440     16442     16441     16440     16443
     16442     16440     16443     16443     16446     16447     16443     16446     16448
     16443     16446     16449     16444     16443     16445     16444     16443     16446
     16445     16443     16446     16446     16449     16450     16446     16449     16451
     16446     16449     16452     16447     16446     16448     16447     16446     16449
     16448     16446     16449     16449     16452     16453     16449     16452     16454
     16449     16452     16455     16450     16449     16451     16450     16449     16452
     16451     16449     16452     16452     16455     16456     16452     16455     16457
     16452     16455     16458     16453     16452     16454     16453     16452     16455
     16454     16452     16455     16455     16458     16459     16455     16458     16460
     16455     16458     16461     16456     16455     16457     16456     16455     16458
     16457     16455     16458     16458     16461     16462     16458     16461     16463
     16458     16461     16464     16459     16458     16460     16459     16458     16461
     16460     16458     16461     16461     16464     16465     16461     16464     16466
     16461     16464     16467     16462     16461     16463     16462     16461     16464
     16463     16461     16464     16464     16467     16468     16464     16467     16469
     16464     16467     16470     16465     16464     16466     16465     16464     16467
     16466     16464     16467     16467     16470     16471     16467     16470     16472
     16467     16470     16473     16468     16467     16469     16468     16467     16470
     16469     16467     16470     16470     16473     16474     16470     16473     16475
     16470     16473     16476     16471     16470     16472     16471     16470     16473
     16472     16470     16473     16473     16476     16477     16473     16476     16478
     16473     16476     16479     16474     16473     16475     16474     16473     16476
     16475     16473     16476     16476     16479     16480     16476     16479     16481
     16476     16479     16482     16477     16476     16478     16477     16476     16479
     16478     16476     16479     16480     16479     16481     16480     16479     16482
     16481     16479     16482     16483     16487     16488     16483     16487     16489
     16483     16487     16490     16484     16483     16485     16484     16483     16486
     16484     16483     16487     16485     16483     16486     16485     16483     16487
     16486     16483     16487     16487     16490     16491     16487     16490     16492
     16487     16490     16497     16488     16487     16489     16488     16487     16490
     16489     16487     16490     16490     16497     16493     16491     16490     16492
     16491     16490     16497     16492     16490     16497     16493     16496     16498
     16494     16493     16495     16494     16493     16496     16494     16493     16497
     16495     16493     16496     16495     16493     16497     16496     16493     16497
     16496     16498     16499     16496     16498     16500     16496     16498     16501
     16498     16501     16502     16498     16501     16503     16498     16501     16509
     16499     16498     16500     16499     16498     16501     16500     16498     16501
     16501     16503     16504     16501     16509     16510     16501     16509     16511
     16501     16509     16512     16502     16501     16503     16502     16501     16509
     16503     16501     16509     16503     16504     16505     16503     16504     16506
     16504     16506     16507     16504     16506     16508     16504     16506     16518
     16505     16504     16506     16506     16518     16519     16506     16518     16520
     16506     16518     16521     16507     16506     16508     16507     16506     16518
     16508     16506     16518     16509     16512     16513     16510     16509     16511
     16510     16509     16512     16511     16509     16512     16512     16513     16514
     16512     16513     16515     16513     16515     16516     16513     16515     16517
     16513     16515     16562     16514     16513     16515     16515     16562     16563
     16515     16562     16564     16515     16562     16565     16516     16515     16517
     16516     16515     16562     16517     16515     16562     16518     16521     16522
     16518     16521     16523     16518     16521     16524     16519     16518     16520
     16519     16518     16521     16520     16518     16521     16521     16524     16525
     16521     16524     16526     16521     16524     16527     16522     16521     16523
     16522     16521     16524     16523     16521     16524     16524     16527     16528
     16524     16527     16529     16524     16527     16530     16525     16524     16526
     16525     16524     16527     16526     16524     16527     16527     16530     16531
     16527     16530     16532     16527     16530     16533     16528     16527     16529
     16528     16527     16530     16529     16527     16530     16530     16533     16534
     16530     16533     16535     16530     16533     16536     16531     16530     16532
     16531     16530     16533     16532     16530     16533     16533     16536     16537
     16533     16536     16538     16533     16536     16541     16534     16533     16535
     16534     16533     16536     16535     16533     16536     16536     16538     16539
     16536     16538     16540     16536     16538     16541     16536     16541     16538
     16536     16541     16542     16536     16541     16543     16537     16536     16538
     16537     16536     16541     16538     16536     16541     16538     16541     16542
     16538     16541     16543     16539     16538     16540     16539     16538     16541
     16540     16538     16541     16541     16543     16544     16541     16543     16545
     16541     16543     16546     16542     16541     16543     16543     16546     16547
     16543     16546     16548     16543     16546     16549     16544     16543     16545
     16544     16543     16546     16545     16543     16546     16546     16549     16550
     16546     16549     16551     16546     16549     16552     16547     16546     16548
     16547     16546     16549     16548     16546     16549     16549     16552     16553
     16549     16552     16554     16549     16552     16555     16550     16549     16551
     16550     16549     16552     16551     16549     16552     16552     16555     16556
     16552     16555     16557     16552     16555     16558     16553     16552     16554
     16553     16552     16555     16554     16552     16555     16555     16558     16559
     16555     16558     16560     16555     16558     16561     16556     16555     16557
     16556     16555     16558     16557     16555     16558     16559     16558     16560
     16559     16558     16561     16560     16558     16561     16562     16565     16566
     16562     16565     16567     16562     16565     16568     16563     16562     16564
     16563     16562     16565     16564     16562     16565     16565     16568     16569
     16565     16568     16570     16565     16568     16571     16566     16565     16567
     16566     16565     16568     16567     16565     16568     16568     16571     16572
     16568     16571     16573     16568     16571     16574     16569     16568     16570
     16569     16568     16571     16570     16568     16571     16571     16574     16575
     16571     16574     16576     16571     16574     16577     16572     16571     16573
     16572     16571     16574     16573     16571     16574     16574     16577     16578
     16574     16577     16579     16574     16577     16580     16575     16574     16576
     16575     16574     16577     16576     16574     16577     16577     16580     16581
     16577     16580     16582     16577     16580     16583     16578     16577     16579
     16578     16577     16580     16579     16577     16580     16580     16583     16584
     16580     16583     16585     16580     16583     16586     16581     16580     16582
     16581     16580     16583     16582     16580     16583     16583     16586     16587
     16583     16586     16588     16583     16586     16589     16584     16583     16585
     16584     16583     16586     16585     16583     16586     16586     16589     16590
     16586     16589     16591     16586     16589     16592     16587     16586     16588
     16587     16586     16589     16588     16586     16589     16589     16592     16593
     16589     16592     16594     16589     16592     16595     16590     16589     16591
     16590     16589     16592     16591     16589     16592     16592     16595     16596
     16592     16595     16597     16592     16595     16598     16593     16592     16594
     16593     16592     16595     16594     16592     16595     16595     16598     16599
     16595     16598     16600     16595     16598     16601     16596     16595     16597
     16596     16595     16598     16597     16595     16598     16599     16598     16600
     16599     16598     16601     16600     16598     16601     16602     16606     16607
     16602     16606     16608     16602     16606     16609     16603     16602     16604
     16603     16602     16605     16603     16602     16606     16604     16602     16605
     16604     16602     16606     16605     16602     16606     16606     16609     16610
     16606     16609     16611     16606     16609     16616     16607     16606     16608
     16607     16606     16609     16608     16606     16609     16609     16616     16612
     16610     16609     16611     16610     16609     16616     16611     16609     16616
     16612     16615     16617     16613     16612     16614     16613     16612     16615
     16613     16612     16616     16614     16612     16615     16614     16612     16616
     16615     16612     16616     16615     16617     16618     16615     16617     16619
     16615     16617     16620     16617     16620     16621     16617     16620     16622
     16617     16620     16628     16618     16617     16619     16618     16617     16620
     16619     16617     16620     16620     16622     16623     16620     16628     16629
     16620     16628     16630     16620     16628     16631     16621     16620     16622
     16621     16620     16628     16622     16620     16628     16622     16623     16624
     16622     16623     16625     16623     16625     16626     16623     16625     16627
     16623     16625     16637     16624     16623     16625     16625     16637     16638
     16625     16637     16639     16625     16637     16640     16626     16625     16627
     16626     16625     16637     16627     16625     16637     16628     16631     16632
     16629     16628     16630     16629     16628     16631     16630     16628     16631
     16631     16632     16633     16631     16632     16634     16632     16634     16635
     16632     16634     16636     16632     16634     16681     16633     16632     16634
     16634     16681     16682     16634     16681     16683     16634     16681     16684
     16635     16634     16636     16635     16634     16681     16636     16634     16681
     16637     16640     16641     16637     16640     16642     16637     16640     16643
     16638     16637     16639     16638     16637     16640     16639     16637     16640
     16640     16643     16644     16640     16643     16645     16640     16643     16646
     16641     16640     16642     16641     16640     16643     16642     16640     16643
     16643     16646     16647     16643     16646     16648     16643     16646     16649
     16644     16643     16645     16644     16643     16646     16645     16643     16646
     16646     16649     16650     16646     16649     16651     16646     16649     16652
     16647     16646     16648     16647     16646     16649     16648     16646     16649
     16649     16652     16653     16649     16652     16654     16649     16652     16655
     16650     16649     16651     16650     16649     16652     16651     16649     16652
     16652     16655     16656     16652     16655     16657     16652     16655     16660
     16653     16652     16654     16653     16652     16655     16654     16652     16655
     16655     16657     16658     16655     16657     16659     16655     16657     16660
     16655     16660     16657     16655     16660     16661     16655     16660     16662
     16656     16655     16657     16656     16655     16660     16657     16655     16660
     16657     16660     16661     16657     16660     16662     16658     16657     16659
     16658     16657     16660     16659     16657     16660     16660     16662     16663
     16660     16662     16664     16660     16662     16665     16661     16660     16662
     16662     16665     16666     16662     16665     16667     16662     16665     16668
     16663     16662     16664     16663     16662     16665     16664     16662     16665
     16665     16668     16669     16665     16668     16670     16665     16668     16671
     16666     16665     16667     16666     16665     16668     16667     16665     16668
     16668     16671     16672     16668     16671     16673     16668     16671     16674
     16669     16668     16670     16669     16668     16671     16670     16668     16671
     16671     16674     16675     16671     16674     16676     16671     16674     16677
     16672     16671     16673     16672     16671     16674     16673     16671     16674
     16674     16677     16678     16674     16677     16679     16674     16677     16680
     16675     16674     16676     16675     16674     16677     16676     16674     16677
     16678     16677     16679     16678     16677     16680     16679     16677     16680
     16681     16684     16685     16681     16684     16686     16681     16684     16687
     16682     16681     16683     16682     16681     16684     16683     16681     16684
     16684     16687     16688     16684     16687     16689     16684     16687     16690
     16685     16684     16686     16685     16684     16687     16686     16684     16687
     16687     16690     16691     16687     16690     16692     16687     16690     16693
     16688     16687     16689     16688     16687     16690     16689     16687     16690
     16690     16693     16694     16690     16693     16695     16690     16693     16696
     16691     16690     16692     16691     16690     16693     16692     16690     16693
     16693     16696     16697     16693     16696     16698     16693     16696     16699
     16694     16693     16695     16694     16693     16696     16695     16693     16696
     16696     16699     16700     16696     16699     16701     16696     16699     16702
     16697     16696     16698     16697     16696     16699     16698     16696     16699
     16699     16702     16703     16699     16702     16704     16699     16702     16705
     16700     16699     16701     16700     16699     16702     16701     16699     16702
     16702     16705     16706     16702     16705     16707     16702     16705     16708
     16703     16702     16704     16703     16702     16705     16704     16702     16705
     16705     16708     16709     16705     16708     16710     16705     16708     16711
     16706     16705     16707     16706     16705     16708     16707     16705     16708
     16708     16711     16712     16708     16711     16713     16708     16711     16714
     16709     16708     16710     16709     16708     16711     16710     16708     16711
     16711     16714     16715     16711     16714     16716     16711     16714     16717
     16712     16711     16713     16712     16711     16714     16713     16711     16714
     16714     16717     16718     16714     16717     16719     16714     16717     16720
     16715     16714     16716     16715     16714     16717     16716     16714     16717
     16717     16720     16721     16717     16720     16722     16717     16720     16723
     16718     16717     16719     16718     16717     16720     16719     16717     16720
     16721     16720     16722     16721     16720     16723     16722     16720     16723
     16724     16727     16728     16724     16729     16730     16724     16729     16731
     16724     16729     16733     16725     16724     16726     16725     16724     16727
     16725     16724     16729     16726     16724     16727     16726     16724     16729
     16727     16724     16729     16729     16731     16732     16729     16733     16734
     16729     16733     16735     16729     16733     16740     16730     16729     16731
     16730     16729     16733     16731     16729     16733     16733     16740     16736
     16734     16733     16735     16734     16733     16740     16735     16733     16740
     16736     16739     16741     16737     16736     16738     16737     16736     16739
     16737     16736     16740     16738     16736     16739     16738     16736     16740
     16739     16736     16740     16739     16741     16742     16739     16741     16743
     16739     16741     16744     16741     16744     16745     16741     16744     16746
     16741     16744     16752     16742     16741     16743     16742     16741     16744
     16743     16741     16744     16744     16746     16747     16744     16752     16753
     16744     16752     16754     16744     16752     16755     16745     16744     16746
     16745     16744     16752     16746     16744     16752     16746     16747     16748
     16746     16747     16749     16747     16749     16750     16747     16749     16751
     16747     16749     16761     16748     16747     16749     16749     16761     16762
     16749     16761     16763     16749     16761     16764     16750     16749     16751
     16750     16749     16761     16751     16749     16761     16752     16755     16756
     16753     16752     16754     16753     16752     16755     16754     16752     16755
     16755     16756     16757     16755     16756     16758     16756     16758     16759
     16756     16758     16760     16756     16758     16805     16757     16756     16758
     16758     16805     16806     16758     16805     16807     16758     16805     16808
     16759     16758     16760     16759     16758     16805     16760     16758     16805
     16761     16764     16765     16761     16764     16766     16761     16764     16767
     16762     16761     16763     16762     16761     16764     16763     16761     16764
     16764     16767     16768     16764     16767     16769     16764     16767     16770
     16765     16764     16766     16765     16764     16767     16766     16764     16767
     16767     16770     16771     16767     16770     16772     16767     16770     16773
     16768     16767     16769     16768     16767     16770     16769     16767     16770
     16770     16773     16774     16770     16773     16775     16770     16773     16776
     16771     16770     16772     16771     16770     16773     16772     16770     16773
     16773     16776     16777     16773     16776     16778     16773     16776     16779
     16774     16773     16775     16774     16773     16776     16775     16773     16776
     16776     16779     16780     16776     16779     16781     16776     16779     16784
     16777     16776     16778     16777     16776     16779     16778     16776     16779
     16779     16781     16782     16779     16781     16783     16779     16781     16784
     16779     16784     16781     16779     16784     16785     16779     16784     16786
     16780     16779     16781     16780     16779     16784     16781     16779     16784
     16781     16784     16785     16781     16784     16786     16782     16781     16783
     16782     16781     16784     16783     16781     16784     16784     16786     16787
     16784     16786     16788     16784     16786     16789     16785     16784     16786
     16786     16789     16790     16786     16789     16791     16786     16789     16792
     16787     16786     16788     16787     16786     16789     16788     16786     16789
     16789     16792     16793     16789     16792     16794     16789     16792     16795
     16790     16789     16791     16790     16789     16792     16791     16789     16792
     16792     16795     16796     16792     16795     16797     16792     16795     16798
     16793     16792     16794     16793     16792     16795     16794     16792     16795
     16795     16798     16799     16795     16798     16800     16795     16798     16801
     16796     16795     16797     16796     16795     16798     16797     16795     16798
     16798     16801     16802     16798     16801     16803     16798     16801     16804
     16799     16798     16800     16799     16798     16801     16800     16798     16801
     16802     16801     16803     16802     16801     16804     16803     16801     16804
     16805     16808     16809     16805     16808     16810     16805     16808     16811
     16806     16805     16807     16806     16805     16808     16807     16805     16808
     16808     16811     16812     16808     16811     16813     16808     16811     16814
     16809     16808     16810     16809     16808     16811     16810     16808     16811
     16811     16814     16815     16811     16814     16816     16811     16814     16817
     16812     16811     16813     16812     16811     16814     16813     16811     16814
     16814     16817     16818     16814     16817     16819     16814     16817     16820
     16815     16814     16816     16815     16814     16817     16816     16814     16817
     16817     16820     16821     16817     16820     16822     16817     16820     16823
     16818     16817     16819     16818     16817     16820     16819     16817     16820
     16820     16823     16824     16820     16823     16825     16820     16823     16826
     16821     16820     16822     16821     16820     16823     16822     16820     16823
     16823     16826     16827     16823     16826     16828     16823     16826     16829
     16824     16823     16825     16824     16823     16826     16825     16823     16826
     16826     16829     16830     16826     16829     16831     16826     16829     16832
     16827     16826     16828     16827     16826     16829     16828     16826     16829
     16829     16832     16833     16829     16832     16834     16829     16832     16835
     16830     16829     16831     16830     16829     16832     16831     16829     16832
     16832     16835     16836     16832     16835     16837     16832     16835     16838
     16833     16832     16834     16833     16832     16835     16834     16832     16835
     16835     16838     16839     16835     16838     16840     16835     16838     16841
     16836     16835     16837     16836     16835     16838     16837     16835     16838
     16838     16841     16842     16838     16841     16843     16838     16841     16844
     16839     16838     16840     16839     16838     16841     16840     16838     16841
     16841     16844     16845     16841     16844     16846     16841     16844     16847
     16842     16841     16843     16842     16841     16844     16843     16841     16844
     16845     16844     16846     16845     16844     16847     16846     16844     16847
     16848     16852     16853     16848     16852     16854     16848     16852     16855
     16849     16848     16850     16849     16848     16851     16849     16848     16852
     16850     16848     16851     16850     16848     16852     16851     16848     16852
     16852     16855     16856     16852     16855     16857     16852     16855     16862
     16853     16852     16854     16853     16852     16855     16854     16852     16855
     16855     16862     16858     16856     16855     16857     16856     16855     16862
     16857     16855     16862     16858     16861     16863     16859     16858     16860
     16859     16858     16861     16859     16858     16862     16860     16858     16861
     16860     16858     16862     16861     16858     16862     16861     16863     16864
     16861     16863     16865     16861     16863     16866     16863     16866     16867
     16863     16866     16868     16863     16866     16874     16864     16863     16865
     16864     16863     16866     16865     16863     16866     16866     16868     16869
     16866     16874     16875     16866     16874     16876     16866     16874     16877
     16867     16866     16868     16867     16866     16874     16868     16866     16874
     16868     16869     16870     16868     16869     16871     16869     16871     16872
     16869     16871     16873     16869     16871     16883     16870     16869     16871
     16871     16883     16884     16871     16883     16885     16871     16883     16886
     16872     16871     16873     16872     16871     16883     16873     16871     16883
     16874     16877     16878     16875     16874     16876     16875     16874     16877
     16876     16874     16877     16877     16878     16879     16877     16878     16880
     16878     16880     16881     16878     16880     16882     16878     16880     16927
     16879     16878     16880     16880     16927     16928     16880     16927     16929
     16880     16927     16930     16881     16880     16882     16881     16880     16927
     16882     16880     16927     16883     16886     16887     16883     16886     16888
     16883     16886     16889     16884     16883     16885     16884     16883     16886
     16885     16883     16886     16886     16889     16890     16886     16889     16891
     16886     16889     16892     16887     16886     16888     16887     16886     16889
     16888     16886     16889     16889     16892     16893     16889     16892     16894
     16889     16892     16895     16890     16889     16891     16890     16889     16892
     16891     16889     16892     16892     16895     16896     16892     16895     16897
     16892     16895     16898     16893     16892     16894     16893     16892     16895
     16894     16892     16895     16895     16898     16899     16895     16898     16900
     16895     16898     16901     16896     16895     16897     16896     16895     16898
     16897     16895     16898     16898     16901     16902     16898     16901     16903
     16898     16901     16906     16899     16898     16900     16899     16898     16901
     16900     16898     16901     16901     16903     16904     16901     16903     16905
     16901     16903     16906     16901     16906     16903     16901     16906     16907
     16901     16906     16908     16902     16901     16903     16902     16901     16906
     16903     16901     16906     16903     16906     16907     16903     16906     16908
     16904     16903     16905     16904     16903     16906     16905     16903     16906
     16906     16908     16909     16906     16908     16910     16906     16908     16911
     16907     16906     16908     16908     16911     16912     16908     16911     16913
     16908     16911     16914     16909     16908     16910     16909     16908     16911
     16910     16908     16911     16911     16914     16915     16911     16914     16916
     16911     16914     16917     16912     16911     16913     16912     16911     16914
     16913     16911     16914     16914     16917     16918     16914     16917     16919
     16914     16917     16920     16915     16914     16916     16915     16914     16917
     16916     16914     16917     16917     16920     16921     16917     16920     16922
     16917     16920     16923     16918     16917     16919     16918     16917     16920
     16919     16917     16920     16920     16923     16924     16920     16923     16925
     16920     16923     16926     16921     16920     16922     16921     16920     16923
     16922     16920     16923     16924     16923     16925     16924     16923     16926
     16925     16923     16926     16927     16930     16931     16927     16930     16932
     16927     16930     16933     16928     16927     16929     16928     16927     16930
     16929     16927     16930     16930     16933     16934     16930     16933     16935
     16930     16933     16936     16931     16930     16932     16931     16930     16933
     16932     16930     16933     16933     16936     16937     16933     16936     16938
     16933     16936     16939     16934     16933     16935     16934     16933     16936
     16935     16933     16936     16936     16939     16940     16936     16939     16941
     16936     16939     16942     16937     16936     16938     16937     16936     16939
     16938     16936     16939     16939     16942     16943     16939     16942     16944
     16939     16942     16945     16940     16939     16941     16940     16939     16942
     16941     16939     16942     16942     16945     16946     16942     16945     16947
     16942     16945     16948     16943     16942     16944     16943     16942     16945
     16944     16942     16945     16945     16948     16949     16945     16948     16950
     16945     16948     16951     16946     16945     16947     16946     16945     16948
     16947     16945     16948     16948     16951     16952     16948     16951     16953
     16948     16951     16954     16949     16948     16950     16949     16948     16951
     16950     16948     16951     16951     16954     16955     16951     16954     16956
     16951     16954     16957     16952     16951     16953     16952     16951     16954
     16953     16951     16954     16954     16957     16958     16954     16957     16959
     16954     16957     16960     16955     16954     16956     16955     16954     16957
     16956     16954     16957     16957     16960     16961     16957     16960     16962
     16957     16960     16963     16958     16957     16959     16958     16957     16960
     16959     16957     16960     16960     16963     16964     16960     16963     16965
     16960     16963     16966     16961     16960     16962     16961     16960     16963
     16962     16960     16963     16963     16966     16967     16963     16966     16968
     16963     16966     16969     16964     16963     16965     16964     16963     16966
     16965     16963     16966     16967     16966     16968     16967     16966     16969
     16968     16966     16969     16970     16974     16975     16970     16974     16976
     16970     16974     16977     16971     16970     16972     16971     16970     16973
     16971     16970     16974     16972     16970     16973     16972     16970     16974
     16973     16970     16974     16974     16977     16978     16974     16977     16979
     16974     16977     16984     16975     16974     16976     16975     16974     16977
     16976     16974     16977     16977     16984     16980     16978     16977     16979
     16978     16977     16984     16979     16977     16984     16980     16983     16985
     16981     16980     16982     16981     16980     16983     16981     16980     16984
     16982     16980     16983     16982     16980     16984     16983     16980     16984
     16983     16985     16986     16983     16985     16987     16983     16985     16988
     16985     16988     16989     16985     16988     16990     16985     16988     16996
     16986     16985     16987     16986     16985     16988     16987     16985     16988
     16988     16990     16991     16988     16996     16997     16988     16996     16998
     16988     16996     16999     16989     16988     16990     16989     16988     16996
     16990     16988     16996     16990     16991     16992     16990     16991     16993
     16991     16993     16994     16991     16993     16995     16991     16993     17005
     16992     16991     16993     16993     17005     17006     16993     17005     17007
     16993     17005     17008     16994     16993     16995     16994     16993     17005
     16995     16993     17005     16996     16999     17000     16997     16996     16998
     16997     16996     16999     16998     16996     16999     16999     17000     17001
     16999     17000     17002     17000     17002     17003     17000     17002     17004
     17000     17002     17046     17001     17000     17002     17002     17046     17047
     17002     17046     17048     17002     17046     17049     17003     17002     17004
     17003     17002     17046     17004     17002     17046     17005     17008     17009
     17005     17008     17010     17005     17008     17011     17006     17005     17007
     17006     17005     17008     17007     17005     17008     17008     17011     17012
     17008     17011     17013     17008     17011     17014     17009     17008     17010
     17009     17008     17011     17010     17008     17011     17011     17014     17015
     17011     17014     17016     17011     17014     17017     17012     17011     17013
     17012     17011     17014     17013     17011     17014     17014     17017     17018
     17014     17017     17019     17014     17017     17020     17015     17014     17016
     17015     17014     17017     17016     17014     17017     17017     17020     17021
     17017     17020     17022     17017     17020     17023     17018     17017     17019
     17018     17017     17020     17019     17017     17020     17020     17023     17024
     17020     17023     17025     17021     17020     17022     17021     17020     17023
     17022     17020     17023     17023     17025     17026     17023     17025     17027
     17024     17023     17025     17025     17027     17028     17025     17027     17029
     17025     17027     17030     17026     17025     17027     17027     17030     17031
     17027     17030     17032     17027     17030     17033     17028     17027     17029
     17028     17027     17030     17029     17027     17030     17030     17033     17034
     17030     17033     17035     17030     17033     17036     17031     17030     17032
     17031     17030     17033     17032     17030     17033     17033     17036     17037
     17033     17036     17038     17033     17036     17039     17034     17033     17035
     17034     17033     17036     17035     17033     17036     17036     17039     17040
     17036     17039     17041     17036     17039     17042     17037     17036     17038
     17037     17036     17039     17038     17036     17039     17039     17042     17043
     17039     17042     17044     17039     17042     17045     17040     17039     17041
     17040     17039     17042     17041     17039     17042     17043     17042     17044
     17043     17042     17045     17044     17042     17045     17046     17049     17050
     17046     17049     17051     17046     17049     17052     17047     17046     17048
     17047     17046     17049     17048     17046     17049     17049     17052     17053
     17049     17052     17054     17049     17052     17055     17050     17049     17051
     17050     17049     17052     17051     17049     17052     17052     17055     17056
     17052     17055     17057     17052     17055     17058     17053     17052     17054
     17053     17052     17055     17054     17052     17055     17055     17058     17059
     17055     17058     17060     17055     17058     17061     17056     17055     17057
     17056     17055     17058     17057     17055     17058     17058     17061     17062
     17058     17061     17063     17058     17061     17064     17059     17058     17060
     17059     17058     17061     17060     17058     17061     17061     17064     17065
     17061     17064     17066     17062     17061     17063     17062     17061     17064
     17063     17061     17064     17064     17066     17067     17064     17066     17068
     17065     17064     17066     17066     17068     17069     17066     17068     17070
     17066     17068     17071     17067     17066     17068     17068     17071     17072
     17068     17071     17073     17068     17071     17074     17069     17068     17070
     17069     17068     17071     17070     17068     17071     17071     17074     17075
     17071     17074     17076     17071     17074     17077     17072     17071     17073
     17072     17071     17074     17073     17071     17074     17074     17077     17078
     17074     17077     17079     17074     17077     17080     17075     17074     17076
     17075     17074     17077     17076     17074     17077     17077     17080     17081
     17077     17080     17082     17077     17080     17083     17078     17077     17079
     17078     17077     17080     17079     17077     17080     17080     17083     17084
     17080     17083     17085     17080     17083     17086     17081     17080     17082
     17081     17080     17083     17082     17080     17083     17083     17086     17087
     17083     17086     17088     17083     17086     17089     17084     17083     17085
     17084     17083     17086     17085     17083     17086     17086     17089     17090
     17086     17089     17091     17086     17089     17092     17087     17086     17088
     17087     17086     17089     17088     17086     17089     17090     17089     17091
     17090     17089     17092     17091     17089     17092     17093     17096     17097
     17093     17098     17099     17093     17098     17100     17093     17098     17102
     17094     17093     17095     17094     17093     17096     17094     17093     17098
     17095     17093     17096     17095     17093     17098     17096     17093     17098
     17098     17100     17101     17098     17102     17103     17098     17102     17104
     17098     17102     17109     17099     17098     17100     17099     17098     17102
     17100     17098     17102     17102     17109     17105     17103     17102     17104
     17103     17102     17109     17104     17102     17109     17105     17108     17110
     17106     17105     17107     17106     17105     17108     17106     17105     17109
     17107     17105     17108     17107     17105     17109     17108     17105     17109
     17108     17110     17111     17108     17110     17112     17108     17110     17113
     17110     17113     17114     17110     17113     17115     17110     17113     17121
     17111     17110     17112     17111     17110     17113     17112     17110     17113
     17113     17115     17116     17113     17121     17122     17113     17121     17123
     17113     17121     17124     17114     17113     17115     17114     17113     17121
     17115     17113     17121     17115     17116     17117     17115     17116     17118
     17116     17118     17119     17116     17118     17120     17116     17118     17130
     17117     17116     17118     17118     17130     17131     17118     17130     17132
     17118     17130     17133     17119     17118     17120     17119     17118     17130
     17120     17118     17130     17121     17124     17125     17122     17121     17123
     17122     17121     17124     17123     17121     17124     17124     17125     17126
     17124     17125     17127     17125     17127     17128     17125     17127     17129
     17125     17127     17171     17126     17125     17127     17127     17171     17172
     17127     17171     17173     17127     17171     17174     17128     17127     17129
     17128     17127     17171     17129     17127     17171     17130     17133     17134
     17130     17133     17135     17130     17133     17136     17131     17130     17132
     17131     17130     17133     17132     17130     17133     17133     17136     17137
     17133     17136     17138     17133     17136     17139     17134     17133     17135
     17134     17133     17136     17135     17133     17136     17136     17139     17140
     17136     17139     17141     17136     17139     17142     17137     17136     17138
     17137     17136     17139     17138     17136     17139     17139     17142     17143
     17139     17142     17144     17139     17142     17145     17140     17139     17141
     17140     17139     17142     17141     17139     17142     17142     17145     17146
     17142     17145     17147     17142     17145     17148     17143     17142     17144
     17143     17142     17145     17144     17142     17145     17145     17148     17149
     17145     17148     17150     17146     17145     17147     17146     17145     17148
     17147     17145     17148     17148     17150     17151     17148     17150     17152
     17149     17148     17150     17150     17152     17153     17150     17152     17154
     17150     17152     17155     17151     17150     17152     17152     17155     17156
     17152     17155     17157     17152     17155     17158     17153     17152     17154
     17153     17152     17155     17154     17152     17155     17155     17158     17159
     17155     17158     17160     17155     17158     17161     17156     17155     17157
     17156     17155     17158     17157     17155     17158     17158     17161     17162
     17158     17161     17163     17158     17161     17164     17159     17158     17160
     17159     17158     17161     17160     17158     17161     17161     17164     17165
     17161     17164     17166     17161     17164     17167     17162     17161     17163
     17162     17161     17164     17163     17161     17164     17164     17167     17168
     17164     17167     17169     17164     17167     17170     17165     17164     17166
     17165     17164     17167     17166     17164     17167     17168     17167     17169
     17168     17167     17170     17169     17167     17170     17171     17174     17175
     17171     17174     17176     17171     17174     17177     17172     17171     17173
     17172     17171     17174     17173     17171     17174     17174     17177     17178
     17174     17177     17179     17174     17177     17180     17175     17174     17176
     17175     17174     17177     17176     17174     17177     17177     17180     17181
     17177     17180     17182     17177     17180     17183     17178     17177     17179
     17178     17177     17180     17179     17177     17180     17180     17183     17184
     17180     17183     17185     17180     17183     17186     17181     17180     17182
     17181     17180     17183     17182     17180     17183     17183     17186     17187
     17183     17186     17188     17183     17186     17189     17184     17183     17185
     17184     17183     17186     17185     17183     17186     17186     17189     17190
     17186     17189     17191     17186     17189     17192     17187     17186     17188
     17187     17186     17189     17188     17186     17189     17189     17192     17193
     17189     17192     17194     17189     17192     17195     17190     17189     17191
     17190     17189     17192     17191     17189     17192     17192     17195     17196
     17192     17195     17197     17192     17195     17198     17193     17192     17194
     17193     17192     17195     17194     17192     17195     17195     17198     17199
     17195     17198     17200     17195     17198     17201     17196     17195     17197
     17196     17195     17198     17197     17195     17198     17198     17201     17202
     17198     17201     17203     17198     17201     17204     17199     17198     17200
     17199     17198     17201     17200     17198     17201     17201     17204     17205
     17201     17204     17206     17201     17204     17207     17202     17201     17203
     17202     17201     17204     17203     17201     17204     17204     17207     17208
     17204     17207     17209     17204     17207     17210     17205     17204     17206
     17205     17204     17207     17206     17204     17207     17207     17210     17211
     17207     17210     17212     17207     17210     17213     17208     17207     17209
     17208     17207     17210     17209     17207     17210     17211     17210     17212
     17211     17210     17213     17212     17210     17213     17214     17218     17219
     17214     17218     17220     17214     17218     17221     17215     17214     17216
     17215     17214     17217     17215     17214     17218     17216     17214     17217
     17216     17214     17218     17217     17214     17218     17218     17221     17222
     17218     17221     17223     17218     17221     17228     17219     17218     17220
     17219     17218     17221     17220     17218     17221     17221     17228     17224
     17222     17221     17223     17222     17221     17228     17223     17221     17228
     17224     17227     17229     17225     17224     17226     17225     17224     17227
     17225     17224     17228     17226     17224     17227     17226     17224     17228
     17227     17224     17228     17227     17229     17230     17227     17229     17231
     17227     17229     17232     17229     17232     17233     17229     17232     17234
     17229     17232     17240     17230     17229     17231     17230     17229     17232
     17231     17229     17232     17232     17234     17235     17232     17240     17241
     17232     17240     17242     17232     17240     17243     17233     17232     17234
     17233     17232     17240     17234     17232     17240     17234     17235     17236
     17234     17235     17237     17235     17237     17238     17235     17237     17239
     17235     17237     17249     17236     17235     17237     17237     17249     17250
     17237     17249     17251     17237     17249     17252     17238     17237     17239
     17238     17237     17249     17239     17237     17249     17240     17243     17244
     17241     17240     17242     17241     17240     17243     17242     17240     17243
     17243     17244     17245     17243     17244     17246     17244     17246     17247
     17244     17246     17248     17244     17246     17293     17245     17244     17246
     17246     17293     17294     17246     17293     17295     17246     17293     17296
     17247     17246     17248     17247     17246     17293     17248     17246     17293
     17249     17252     17253     17249     17252     17254     17249     17252     17255
     17250     17249     17251     17250     17249     17252     17251     17249     17252
     17252     17255     17256     17252     17255     17257     17252     17255     17258
     17253     17252     17254     17253     17252     17255     17254     17252     17255
     17255     17258     17259     17255     17258     17260     17255     17258     17261
     17256     17255     17257     17256     17255     17258     17257     17255     17258
     17258     17261     17262     17258     17261     17263     17258     17261     17264
     17259     17258     17260     17259     17258     17261     17260     17258     17261
     17261     17264     17265     17261     17264     17266     17261     17264     17267
     17262     17261     17263     17262     17261     17264     17263     17261     17264
     17264     17267     17268     17264     17267     17269     17264     17267     17272
     17265     17264     17266     17265     17264     17267     17266     17264     17267
     17267     17269     17270     17267     17269     17271     17267     17269     17272
     17267     17272     17269     17267     17272     17273     17267     17272     17274
     17268     17267     17269     17268     17267     17272     17269     17267     17272
     17269     17272     17273     17269     17272     17274     17270     17269     17271
     17270     17269     17272     17271     17269     17272     17272     17274     17275
     17272     17274     17276     17272     17274     17277     17273     17272     17274
     17274     17277     17278     17274     17277     17279     17274     17277     17280
     17275     17274     17276     17275     17274     17277     17276     17274     17277
     17277     17280     17281     17277     17280     17282     17277     17280     17283
     17278     17277     17279     17278     17277     17280     17279     17277     17280
     17280     17283     17284     17280     17283     17285     17280     17283     17286
     17281     17280     17282     17281     17280     17283     17282     17280     17283
     17283     17286     17287     17283     17286     17288     17283     17286     17289
     17284     17283     17285     17284     17283     17286     17285     17283     17286
     17286     17289     17290     17286     17289     17291     17286     17289     17292
     17287     17286     17288     17287     17286     17289     17288     17286     17289
     17290     17289     17291     17290     17289     17292     17291     17289     17292
     17293     17296     17297     17293     17296     17298     17293     17296     17299
     17294     17293     17295     17294     17293     17296     17295     17293     17296
     17296     17299     17300     17296     17299     17301     17296     17299     17302
     17297     17296     17298     17297     17296     17299     17298     17296     17299
     17299     17302     17303     17299     17302     17304     17299     17302     17305
     17300     17299     17301     17300     17299     17302     17301     17299     17302
     17302     17305     17306     17302     17305     17307     17302     17305     17308
     17303     17302     17304     17303     17302     17305     17304     17302     17305
     17305     17308     17309     17305     17308     17310     17305     17308     17311
     17306     17305     17307     17306     17305     17308     17307     17305     17308
     17308     17311     17312     17308     17311     17313     17308     17311     17314
     17309     17308     17310     17309     17308     17311     17310     17308     17311
     17311     17314     17315     17311     17314     17316     17311     17314     17317
     17312     17311     17313     17312     17311     17314     17313     17311     17314
     17314     17317     17318     17314     17317     17319     17314     17317     17320
     17315     17314     17316     17315     17314     17317     17316     17314     17317
     17317     17320     17321     17317     17320     17322     17317     17320     17323
     17318     17317     17319     17318     17317     17320     17319     17317     17320
     17320     17323     17324     17320     17323     17325     17320     17323     17326
     17321     17320     17322     17321     17320     17323     17322     17320     17323
     17323     17326     17327     17323     17326     17328     17323     17326     17329
     17324     17323     17325     17324     17323     17326     17325     17323     17326
     17326     17329     17330     17326     17329     17331     17326     17329     17332
     17327     17326     17328     17327     17326     17329     17328     17326     17329
     17329     17332     17333     17329     17332     17334     17329     17332     17335
     17330     17329     17331     17330     17329     17332     17331     17329     17332
     17333     17332     17334     17333     17332     17335     17334     17332     17335
     17336     17339     17340     17336     17341     17342     17336     17341     17343
     17336     17341     17345     17337     17336     17338     17337     17336     17339
     17337     17336     17341     17338     17336     17339     17338     17336     17341
     17339     17336     17341     17341     17343     17344     17341     17345     17346
     17341     17345     17347     17341     17345     17352     17342     17341     17343
     17342     17341     17345     17343     17341     17345     17345     17352     17348
     17346     17345     17347     17346     17345     17352     17347     17345     17352
     17348     17351     17353     17349     17348     17350     17349     17348     17351
     17349     17348     17352     17350     17348     17351     17350     17348     17352
     17351     17348     17352     17351     17353     17354     17351     17353     17355
     17351     17353     17356     17353     17356     17357     17353     17356     17358
     17353     17356     17364     17354     17353     17355     17354     17353     17356
     17355     17353     17356     17356     17358     17359     17356     17364     17365
     17356     17364     17366     17356     17364     17367     17357     17356     17358
     17357     17356     17364     17358     17356     17364     17358     17359     17360
     17358     17359     17361     17359     17361     17362     17359     17361     17363
     17359     17361     17373     17360     17359     17361     17361     17373     17374
     17361     17373     17375     17361     17373     17376     17362     17361     17363
     17362     17361     17373     17363     17361     17373     17364     17367     17368
     17365     17364     17366     17365     17364     17367     17366     17364     17367
     17367     17368     17369     17367     17368     17370     17368     17370     17371
     17368     17370     17372     17368     17370     17414     17369     17368     17370
     17370     17414     17415     17370     17414     17416     17370     17414     17417
     17371     17370     17372     17371     17370     17414     17372     17370     17414
     17373     17376     17377     17373     17376     17378     17373     17376     17379
     17374     17373     17375     17374     17373     17376     17375     17373     17376
     17376     17379     17380     17376     17379     17381     17376     17379     17382
     17377     17376     17378     17377     17376     17379     17378     17376     17379
     17379     17382     17383     17379     17382     17384     17379     17382     17385
     17380     17379     17381     17380     17379     17382     17381     17379     17382
     17382     17385     17386     17382     17385     17387     17382     17385     17388
     17383     17382     17384     17383     17382     17385     17384     17382     17385
     17385     17388     17389     17385     17388     17390     17385     17388     17391
     17386     17385     17387     17386     17385     17388     17387     17385     17388
     17388     17391     17392     17388     17391     17393     17389     17388     17390
     17389     17388     17391     17390     17388     17391     17391     17393     17394
     17391     17393     17395     17392     17391     17393     17393     17395     17396
     17393     17395     17397     17393     17395     17398     17394     17393     17395
     17395     17398     17399     17395     17398     17400     17395     17398     17401
     17396     17395     17397     17396     17395     17398     17397     17395     17398
     17398     17401     17402     17398     17401     17403     17398     17401     17404
     17399     17398     17400     17399     17398     17401     17400     17398     17401
     17401     17404     17405     17401     17404     17406     17401     17404     17407
     17402     17401     17403     17402     17401     17404     17403     17401     17404
     17404     17407     17408     17404     17407     17409     17404     17407     17410
     17405     17404     17406     17405     17404     17407     17406     17404     17407
     17407     17410     17411     17407     17410     17412     17407     17410     17413
     17408     17407     17409     17408     17407     17410     17409     17407     17410
     17411     17410     17412     17411     17410     17413     17412     17410     17413
     17414     17417     17418     17414     17417     17419     17414     17417     17420
     17415     17414     17416     17415     17414     17417     17416     17414     17417
     17417     17420     17421     17417     17420     17422     17417     17420     17423
     17418     17417     17419     17418     17417     17420     17419     17417     17420
     17420     17423     17424     17420     17423     17425     17420     17423     17426
     17421     17420     17422     17421     17420     17423     17422     17420     17423
     17423     17426     17427     17423     17426     17428     17423     17426     17429
     17424     17423     17425     17424     17423     17426     17425     17423     17426
     17426     17429     17430     17426     17429     17431     17426     17429     17432
     17427     17426     17428     17427     17426     17429     17428     17426     17429
     17429     17432     17433     17429     17432     17434     17429     17432     17435
     17430     17429     17431     17430     17429     17432     17431     17429     17432
     17432     17435     17436     17432     17435     17437     17432     17435     17438
     17433     17432     17434     17433     17432     17435     17434     17432     17435
     17435     17438     17439     17435     17438     17440     17435     17438     17441
     17436     17435     17437     17436     17435     17438     17437     17435     17438
     17438     17441     17442     17438     17441     17443     17438     17441     17444
     17439     17438     17440     17439     17438     17441     17440     17438     17441
     17441     17444     17445     17441     17444     17446     17441     17444     17447
     17442     17441     17443     17442     17441     17444     17443     17441     17444
     17444     17447     17448     17444     17447     17449     17444     17447     17450
     17445     17444     17446     17445     17444     17447     17446     17444     17447
     17447     17450     17451     17447     17450     17452     17447     17450     17453
     17448     17447     17449     17448     17447     17450     17449     17447     17450
     17450     17453     17454     17450     17453     17455     17450     17453     17456
     17451     17450     17452     17451     17450     17453     17452     17450     17453
     17454     17453     17455     17454     17453     17456     17455     17453     17456
     17457     17460     17461     17457     17462     17463     17457     17462     17464
     17457     17462     17466     17458     17457     17459     17458     17457     17460
     17458     17457     17462     17459     17457     17460     17459     17457     17462
     17460     17457     17462     17462     17464     17465     17462     17466     17467
     17462     17466     17468     17462     17466     17473     17463     17462     17464
     17463     17462     17466     17464     17462     17466     17466     17473     17469
     17467     17466     17468     17467     17466     17473     17468     17466     17473
     17469     17472     17474     17470     17469     17471     17470     17469     17472
     17470     17469     17473     17471     17469     17472     17471     17469     17473
     17472     17469     17473     17472     17474     17475     17472     17474     17476
     17472     17474     17477     17474     17477     17478     17474     17477     17479
     17474     17477     17485     17475     17474     17476     17475     17474     17477
     17476     17474     17477     17477     17479     17480     17477     17485     17486
     17477     17485     17487     17477     17485     17488     17478     17477     17479
     17478     17477     17485     17479     17477     17485     17479     17480     17481
     17479     17480     17482     17480     17482     17483     17480     17482     17484
     17480     17482     17494     17481     17480     17482     17482     17494     17495
     17482     17494     17496     17482     17494     17497     17483     17482     17484
     17483     17482     17494     17484     17482     17494     17485     17488     17489
     17486     17485     17487     17486     17485     17488     17487     17485     17488
     17488     17489     17490     17488     17489     17491     17489     17491     17492
     17489     17491     17493     17489     17491     17538     17490     17489     17491
     17491     17538     17539     17491     17538     17540     17491     17538     17541
     17492     17491     17493     17492     17491     17538     17493     17491     17538
     17494     17497     17498     17494     17497     17499     17494     17497     17500
     17495     17494     17496     17495     17494     17497     17496     17494     17497
     17497     17500     17501     17497     17500     17502     17497     17500     17503
     17498     17497     17499     17498     17497     17500     17499     17497     17500
     17500     17503     17504     17500     17503     17505     17500     17503     17506
     17501     17500     17502     17501     17500     17503     17502     17500     17503
     17503     17506     17507     17503     17506     17508     17503     17506     17509
     17504     17503     17505     17504     17503     17506     17505     17503     17506
     17506     17509     17510     17506     17509     17511     17506     17509     17512
     17507     17506     17508     17507     17506     17509     17508     17506     17509
     17509     17512     17513     17509     17512     17514     17509     17512     17517
     17510     17509     17511     17510     17509     17512     17511     17509     17512
     17512     17514     17515     17512     17514     17516     17512     17514     17517
     17512     17517     17514     17512     17517     17518     17512     17517     17519
     17513     17512     17514     17513     17512     17517     17514     17512     17517
     17514     17517     17518     17514     17517     17519     17515     17514     17516
     17515     17514     17517     17516     17514     17517     17517     17519     17520
     17517     17519     17521     17517     17519     17522     17518     17517     17519
     17519     17522     17523     17519     17522     17524     17519     17522     17525
     17520     17519     17521     17520     17519     17522     17521     17519     17522
     17522     17525     17526     17522     17525     17527     17522     17525     17528
     17523     17522     17524     17523     17522     17525     17524     17522     17525
     17525     17528     17529     17525     17528     17530     17525     17528     17531
     17526     17525     17527     17526     17525     17528     17527     17525     17528
     17528     17531     17532     17528     17531     17533     17528     17531     17534
     17529     17528     17530     17529     17528     17531     17530     17528     17531
     17531     17534     17535     17531     17534     17536     17531     17534     17537
     17532     17531     17533     17532     17531     17534     17533     17531     17534
     17535     17534     17536     17535     17534     17537     17536     17534     17537
     17538     17541     17542     17538     17541     17543     17538     17541     17544
     17539     17538     17540     17539     17538     17541     17540     17538     17541
     17541     17544     17545     17541     17544     17546     17541     17544     17547
     17542     17541     17543     17542     17541     17544     17543     17541     17544
     17544     17547     17548     17544     17547     17549     17544     17547     17550
     17545     17544     17546     17545     17544     17547     17546     17544     17547
     17547     17550     17551     17547     17550     17552     17547     17550     17553
     17548     17547     17549     17548     17547     17550     17549     17547     17550
     17550     17553     17554     17550     17553     17555     17550     17553     17556
     17551     17550     17552     17551     17550     17553     17552     17550     17553
     17553     17556     17557     17553     17556     17558     17553     17556     17559
     17554     17553     17555     17554     17553     17556     17555     17553     17556
     17556     17559     17560     17556     17559     17561     17556     17559     17562
     17557     17556     17558     17557     17556     17559     17558     17556     17559
     17559     17562     17563     17559     17562     17564     17559     17562     17565
     17560     17559     17561     17560     17559     17562     17561     17559     17562
     17562     17565     17566     17562     17565     17567     17562     17565     17568
     17563     17562     17564     17563     17562     17565     17564     17562     17565
     17565     17568     17569     17565     17568     17570     17565     17568     17571
     17566     17565     17567     17566     17565     17568     17567     17565     17568
     17568     17571     17572     17568     17571     17573     17568     17571     17574
     17569     17568     17570     17569     17568     17571     17570     17568     17571
     17571     17574     17575     17571     17574     17576     17571     17574     17577
     17572     17571     17573     17572     17571     17574     17573     17571     17574
     17574     17577     17578     17574     17577     17579     17574     17577     17580
     17575     17574     17576     17575     17574     17577     17576     17574     17577
     17578     17577     17579     17578     17577     17580     17579     17577     17580
     17581     17585     17586     17581     17585     17587     17581     17585     17588
     17582     17581     17583     17582     17581     17584     17582     17581     17585
     17583     17581     17584     17583     17581     17585     17584     17581     17585
     17585     17588     17589     17585     17588     17590     17585     17588     17595
     17586     17585     17587     17586     17585     17588     17587     17585     17588
     17588     17595     17591     17589     17588     17590     17589     17588     17595
     17590     17588     17595     17591     17594     17596     17592     17591     17593
     17592     17591     17594     17592     17591     17595     17593     17591     17594
     17593     17591     17595     17594     17591     17595     17594     17596     17597
     17594     17596     17598     17594     17596     17599     17596     17599     17600
     17596     17599     17601     17596     17599     17607     17597     17596     17598
     17597     17596     17599     17598     17596     17599     17599     17601     17602
     17599     17607     17608     17599     17607     17609     17599     17607     17610
     17600     17599     17601     17600     17599     17607     17601     17599     17607
     17601     17602     17603     17601     17602     17604     17602     17604     17605
     17602     17604     17606     17602     17604     17616     17603     17602     17604
     17604     17616     17617     17604     17616     17618     17604     17616     17619
     17605     17604     17606     17605     17604     17616     17606     17604     17616
     17607     17610     17611     17608     17607     17609     17608     17607     17610
     17609     17607     17610     17610     17611     17612     17610     17611     17613
     17611     17613     17614     17611     17613     17615     17611     17613     17660
     17612     17611     17613     17613     17660     17661     17613     17660     17662
     17613     17660     17663     17614     17613     17615     17614     17613     17660
     17615     17613     17660     17616     17619     17620     17616     17619     17621
     17616     17619     17622     17617     17616     17618     17617     17616     17619
     17618     17616     17619     17619     17622     17623     17619     17622     17624
     17619     17622     17625     17620     17619     17621     17620     17619     17622
     17621     17619     17622     17622     17625     17626     17622     17625     17627
     17622     17625     17628     17623     17622     17624     17623     17622     17625
     17624     17622     17625     17625     17628     17629     17625     17628     17630
     17625     17628     17631     17626     17625     17627     17626     17625     17628
     17627     17625     17628     17628     17631     17632     17628     17631     17633
     17628     17631     17634     17629     17628     17630     17629     17628     17631
     17630     17628     17631     17631     17634     17635     17631     17634     17636
     17631     17634     17639     17632     17631     17633     17632     17631     17634
     17633     17631     17634     17634     17636     17637     17634     17636     17638
     17634     17636     17639     17634     17639     17636     17634     17639     17640
     17634     17639     17641     17635     17634     17636     17635     17634     17639
     17636     17634     17639     17636     17639     17640     17636     17639     17641
     17637     17636     17638     17637     17636     17639     17638     17636     17639
     17639     17641     17642     17639     17641     17643     17639     17641     17644
     17640     17639     17641     17641     17644     17645     17641     17644     17646
     17641     17644     17647     17642     17641     17643     17642     17641     17644
     17643     17641     17644     17644     17647     17648     17644     17647     17649
     17644     17647     17650     17645     17644     17646     17645     17644     17647
     17646     17644     17647     17647     17650     17651     17647     17650     17652
     17647     17650     17653     17648     17647     17649     17648     17647     17650
     17649     17647     17650     17650     17653     17654     17650     17653     17655
     17650     17653     17656     17651     17650     17652     17651     17650     17653
     17652     17650     17653     17653     17656     17657     17653     17656     17658
     17653     17656     17659     17654     17653     17655     17654     17653     17656
     17655     17653     17656     17657     17656     17658     17657     17656     17659
     17658     17656     17659     17660     17663     17664     17660     17663     17665
     17660     17663     17666     17661     17660     17662     17661     17660     17663
     17662     17660     17663     17663     17666     17667     17663     17666     17668
     17663     17666     17669     17664     17663     17665     17664     17663     17666
     17665     17663     17666     17666     17669     17670     17666     17669     17671
     17666     17669     17672     17667     17666     17668     17667     17666     17669
     17668     17666     17669     17669     17672     17673     17669     17672     17674
     17669     17672     17675     17670     17669     17671     17670     17669     17672
     17671     17669     17672     17672     17675     17676     17672     17675     17677
     17672     17675     17678     17673     17672     17674     17673     17672     17675
     17674     17672     17675     17675     17678     17679     17675     17678     17680
     17675     17678     17681     17676     17675     17677     17676     17675     17678
     17677     17675     17678     17678     17681     17682     17678     17681     17683
     17678     17681     17684     17679     17678     17680     17679     17678     17681
     17680     17678     17681     17681     17684     17685     17681     17684     17686
     17681     17684     17687     17682     17681     17683     17682     17681     17684
     17683     17681     17684     17684     17687     17688     17684     17687     17689
     17684     17687     17690     17685     17684     17686     17685     17684     17687
     17686     17684     17687     17687     17690     17691     17687     17690     17692
     17687     17690     17693     17688     17687     17689     17688     17687     17690
     17689     17687     17690     17690     17693     17694     17690     17693     17695
     17690     17693     17696     17691     17690     17692     17691     17690     17693
     17692     17690     17693     17693     17696     17697     17693     17696     17698
     17693     17696     17699     17694     17693     17695     17694     17693     17696
     17695     17693     17696     17697     17696     17698     17697     17696     17699
     17698     17696     17699     17700     17704     17705     17700     17704     17706
     17700     17704     17707     17701     17700     17702     17701     17700     17703
     17701     17700     17704     17702     17700     17703     17702     17700     17704
     17703     17700     17704     17704     17707     17708     17704     17707     17709
     17704     17707     17714     17705     17704     17706     17705     17704     17707
     17706     17704     17707     17707     17714     17710     17708     17707     17709
     17708     17707     17714     17709     17707     17714     17710     17713     17715
     17711     17710     17712     17711     17710     17713     17711     17710     17714
     17712     17710     17713     17712     17710     17714     17713     17710     17714
     17713     17715     17716     17713     17715     17717     17713     17715     17718
     17715     17718     17719     17715     17718     17720     17715     17718     17726
     17716     17715     17717     17716     17715     17718     17717     17715     17718
     17718     17720     17721     17718     17726     17727     17718     17726     17728
     17718     17726     17729     17719     17718     17720     17719     17718     17726
     17720     17718     17726     17720     17721     17722     17720     17721     17723
     17721     17723     17724     17721     17723     17725     17721     17723     17735
     17722     17721     17723     17723     17735     17736     17723     17735     17737
     17723     17735     17738     17724     17723     17725     17724     17723     17735
     17725     17723     17735     17726     17729     17730     17727     17726     17728
     17727     17726     17729     17728     17726     17729     17729     17730     17731
     17729     17730     17732     17730     17732     17733     17730     17732     17734
     17730     17732     17776     17731     17730     17732     17732     17776     17777
     17732     17776     17778     17732     17776     17779     17733     17732     17734
     17733     17732     17776     17734     17732     17776     17735     17738     17739
     17735     17738     17740     17735     17738     17741     17736     17735     17737
     17736     17735     17738     17737     17735     17738     17738     17741     17742
     17738     17741     17743     17738     17741     17744     17739     17738     17740
     17739     17738     17741     17740     17738     17741     17741     17744     17745
     17741     17744     17746     17741     17744     17747     17742     17741     17743
     17742     17741     17744     17743     17741     17744     17744     17747     17748
     17744     17747     17749     17744     17747     17750     17745     17744     17746
     17745     17744     17747     17746     17744     17747     17747     17750     17751
     17747     17750     17752     17747     17750     17753     17748     17747     17749
     17748     17747     17750     17749     17747     17750     17750     17753     17754
     17750     17753     17755     17751     17750     17752     17751     17750     17753
     17752     17750     17753     17753     17755     17756     17753     17755     17757
     17754     17753     17755     17755     17757     17758     17755     17757     17759
     17755     17757     17760     17756     17755     17757     17757     17760     17761
     17757     17760     17762     17757     17760     17763     17758     17757     17759
     17758     17757     17760     17759     17757     17760     17760     17763     17764
     17760     17763     17765     17760     17763     17766     17761     17760     17762
     17761     17760     17763     17762     17760     17763     17763     17766     17767
     17763     17766     17768     17763     17766     17769     17764     17763     17765
     17764     17763     17766     17765     17763     17766     17766     17769     17770
     17766     17769     17771     17766     17769     17772     17767     17766     17768
     17767     17766     17769     17768     17766     17769     17769     17772     17773
     17769     17772     17774     17769     17772     17775     17770     17769     17771
     17770     17769     17772     17771     17769     17772     17773     17772     17774
     17773     17772     17775     17774     17772     17775     17776     17779     17780
     17776     17779     17781     17776     17779     17782     17777     17776     17778
     17777     17776     17779     17778     17776     17779     17779     17782     17783
     17779     17782     17784     17779     17782     17785     17780     17779     17781
     17780     17779     17782     17781     17779     17782     17782     17785     17786
     17782     17785     17787     17782     17785     17788     17783     17782     17784
     17783     17782     17785     17784     17782     17785     17785     17788     17789
     17785     17788     17790     17785     17788     17791     17786     17785     17787
     17786     17785     17788     17787     17785     17788     17788     17791     17792
     17788     17791     17793     17788     17791     17794     17789     17788     17790
     17789     17788     17791     17790     17788     17791     17791     17794     17795
     17791     17794     17796     17792     17791     17793     17792     17791     17794
     17793     17791     17794     17794     17796     17797     17794     17796     17798
     17795     17794     17796     17796     17798     17799     17796     17798     17800
     17796     17798     17801     17797     17796     17798     17798     17801     17802
     17798     17801     17803     17798     17801     17804     17799     17798     17800
     17799     17798     17801     17800     17798     17801     17801     17804     17805
     17801     17804     17806     17801     17804     17807     17802     17801     17803
     17802     17801     17804     17803     17801     17804     17804     17807     17808
     17804     17807     17809     17804     17807     17810     17805     17804     17806
     17805     17804     17807     17806     17804     17807     17807     17810     17811
     17807     17810     17812     17807     17810     17813     17808     17807     17809
     17808     17807     17810     17809     17807     17810     17810     17813     17814
     17810     17813     17815     17810     17813     17816     17811     17810     17812
     17811     17810     17813     17812     17810     17813     17813     17816     17817
     17813     17816     17818     17813     17816     17819     17814     17813     17815
     17814     17813     17816     17815     17813     17816     17816     17819     17820
     17816     17819     17821     17816     17819     17822     17817     17816     17818
     17817     17816     17819     17818     17816     17819     17820     17819     17821
     17820     17819     17822     17821     17819     17822     17823     17827     17828
     17823     17827     17829     17823     17827     17830     17824     17823     17825
     17824     17823     17826     17824     17823     17827     17825     17823     17826
     17825     17823     17827     17826     17823     17827     17827     17830     17831
     17827     17830     17832     17827     17830     17837     17828     17827     17829
     17828     17827     17830     17829     17827     17830     17830     17837     17833
     17831     17830     17832     17831     17830     17837     17832     17830     17837
     17833     17836     17838     17834     17833     17835     17834     17833     17836
     17834     17833     17837     17835     17833     17836     17835     17833     17837
     17836     17833     17837     17836     17838     17839     17836     17838     17840
     17836     17838     17841     17838     17841     17842     17838     17841     17843
     17838     17841     17849     17839     17838     17840     17839     17838     17841
     17840     17838     17841     17841     17843     17844     17841     17849     17850
     17841     17849     17851     17841     17849     17852     17842     17841     17843
     17842     17841     17849     17843     17841     17849     17843     17844     17845
     17843     17844     17846     17844     17846     17847     17844     17846     17848
     17844     17846     17858     17845     17844     17846     17846     17858     17859
     17846     17858     17860     17846     17858     17861     17847     17846     17848
     17847     17846     17858     17848     17846     17858     17849     17852     17853
     17850     17849     17851     17850     17849     17852     17851     17849     17852
     17852     17853     17854     17852     17853     17855     17853     17855     17856
     17853     17855     17857     17853     17855     17902     17854     17853     17855
     17855     17902     17903     17855     17902     17904     17855     17902     17905
     17856     17855     17857     17856     17855     17902     17857     17855     17902
     17858     17861     17862     17858     17861     17863     17858     17861     17864
     17859     17858     17860     17859     17858     17861     17860     17858     17861
     17861     17864     17865     17861     17864     17866     17861     17864     17867
     17862     17861     17863     17862     17861     17864     17863     17861     17864
     17864     17867     17868     17864     17867     17869     17864     17867     17870
     17865     17864     17866     17865     17864     17867     17866     17864     17867
     17867     17870     17871     17867     17870     17872     17867     17870     17873
     17868     17867     17869     17868     17867     17870     17869     17867     17870
     17870     17873     17874     17870     17873     17875     17870     17873     17876
     17871     17870     17872     17871     17870     17873     17872     17870     17873
     17873     17876     17877     17873     17876     17878     17873     17876     17881
     17874     17873     17875     17874     17873     17876     17875     17873     17876
     17876     17878     17879     17876     17878     17880     17876     17878     17881
     17876     17881     17878     17876     17881     17882     17876     17881     17883
     17877     17876     17878     17877     17876     17881     17878     17876     17881
     17878     17881     17882     17878     17881     17883     17879     17878     17880
     17879     17878     17881     17880     17878     17881     17881     17883     17884
     17881     17883     17885     17881     17883     17886     17882     17881     17883
     17883     17886     17887     17883     17886     17888     17883     17886     17889
     17884     17883     17885     17884     17883     17886     17885     17883     17886
     17886     17889     17890     17886     17889     17891     17886     17889     17892
     17887     17886     17888     17887     17886     17889     17888     17886     17889
     17889     17892     17893     17889     17892     17894     17889     17892     17895
     17890     17889     17891     17890     17889     17892     17891     17889     17892
     17892     17895     17896     17892     17895     17897     17892     17895     17898
     17893     17892     17894     17893     17892     17895     17894     17892     17895
     17895     17898     17899     17895     17898     17900     17895     17898     17901
     17896     17895     17897     17896     17895     17898     17897     17895     17898
     17899     17898     17900     17899     17898     17901     17900     17898     17901
     17902     17905     17906     17902     17905     17907     17902     17905     17908
     17903     17902     17904     17903     17902     17905     17904     17902     17905
     17905     17908     17909     17905     17908     17910     17905     17908     17911
     17906     17905     17907     17906     17905     17908     17907     17905     17908
     17908     17911     17912     17908     17911     17913     17908     17911     17914
     17909     17908     17910     17909     17908     17911     17910     17908     17911
     17911     17914     17915     17911     17914     17916     17911     17914     17917
     17912     17911     17913     17912     17911     17914     17913     17911     17914
     17914     17917     17918     17914     17917     17919     17914     17917     17920
     17915     17914     17916     17915     17914     17917     17916     17914     17917
     17917     17920     17921     17917     17920     17922     17917     17920     17923
     17918     17917     17919     17918     17917     17920     17919     17917     17920
     17920     17923     17924     17920     17923     17925     17920     17923     17926
     17921     17920     17922     17921     17920     17923     17922     17920     17923
     17923     17926     17927     17923     17926     17928     17923     17926     17929
     17924     17923     17925     17924     17923     17926     17925     17923     17926
     17926     17929     17930     17926     17929     17931     17926     17929     17932
     17927     17926     17928     17927     17926     17929     17928     17926     17929
     17929     17932     17933     17929     17932     17934     17929     17932     17935
     17930     17929     17931     17930     17929     17932     17931     17929     17932
     17932     17935     17936     17932     17935     17937     17932     17935     17938
     17933     17932     17934     17933     17932     17935     17934     17932     17935
     17935     17938     17939     17935     17938     17940     17935     17938     17941
     17936     17935     17937     17936     17935     17938     17937     17935     17938
     17938     17941     17942     17938     17941     17943     17938     17941     17944
     17939     17938     17940     17939     17938     17941     17940     17938     17941
     17942     17941     17943     17942     17941     17944     17943     17941     17944
     17945     17949     17950     17945     17949     17951     17945     17949     17952
     17946     17945     17947     17946     17945     17948     17946     17945     17949
     17947     17945     17948     17947     17945     17949     17948     17945     17949
     17949     17952     17953     17949     17952     17954     17949     17952     17959
     17950     17949     17951     17950     17949     17952     17951     17949     17952
     17952     17959     17955     17953     17952     17954     17953     17952     17959
     17954     17952     17959     17955     17958     17960     17956     17955     17957
     17956     17955     17958     17956     17955     17959     17957     17955     17958
     17957     17955     17959     17958     17955     17959     17958     17960     17961
     17958     17960     17962     17958     17960     17963     17960     17963     17964
     17960     17963     17965     17960     17963     17971     17961     17960     17962
     17961     17960     17963     17962     17960     17963     17963     17965     17966
     17963     17971     17972     17963     17971     17973     17963     17971     17974
     17964     17963     17965     17964     17963     17971     17965     17963     17971
     17965     17966     17967     17965     17966     17968     17966     17968     17969
     17966     17968     17970     17966     17968     17980     17967     17966     17968
     17968     17980     17981     17968     17980     17982     17968     17980     17983
     17969     17968     17970     17969     17968     17980     17970     17968     17980
     17971     17974     17975     17972     17971     17973     17972     17971     17974
     17973     17971     17974     17974     17975     17976     17974     17975     17977
     17975     17977     17978     17975     17977     17979     17975     17977     18024
     17976     17975     17977     17977     18024     18025     17977     18024     18026
     17977     18024     18027     17978     17977     17979     17978     17977     18024
     17979     17977     18024     17980     17983     17984     17980     17983     17985
     17980     17983     17986     17981     17980     17982     17981     17980     17983
     17982     17980     17983     17983     17986     17987     17983     17986     17988
     17983     17986     17989     17984     17983     17985     17984     17983     17986
     17985     17983     17986     17986     17989     17990     17986     17989     17991
     17986     17989     17992     17987     17986     17988     17987     17986     17989
     17988     17986     17989     17989     17992     17993     17989     17992     17994
     17989     17992     17995     17990     17989     17991     17990     17989     17992
     17991     17989     17992     17992     17995     17996     17992     17995     17997
     17992     17995     17998     17993     17992     17994     17993     17992     17995
     17994     17992     17995     17995     17998     17999     17995     17998     18000
     17995     17998     18003     17996     17995     17997     17996     17995     17998
     17997     17995     17998     17998     18000     18001     17998     18000     18002
     17998     18000     18003     17998     18003     18000     17998     18003     18004
     17998     18003     18005     17999     17998     18000     17999     17998     18003
     18000     17998     18003     18000     18003     18004     18000     18003     18005
     18001     18000     18002     18001     18000     18003     18002     18000     18003
     18003     18005     18006     18003     18005     18007     18003     18005     18008
     18004     18003     18005     18005     18008     18009     18005     18008     18010
     18005     18008     18011     18006     18005     18007     18006     18005     18008
     18007     18005     18008     18008     18011     18012     18008     18011     18013
     18008     18011     18014     18009     18008     18010     18009     18008     18011
     18010     18008     18011     18011     18014     18015     18011     18014     18016
     18011     18014     18017     18012     18011     18013     18012     18011     18014
     18013     18011     18014     18014     18017     18018     18014     18017     18019
     18014     18017     18020     18015     18014     18016     18015     18014     18017
     18016     18014     18017     18017     18020     18021     18017     18020     18022
     18017     18020     18023     18018     18017     18019     18018     18017     18020
     18019     18017     18020     18021     18020     18022     18021     18020     18023
     18022     18020     18023     18024     18027     18028     18024     18027     18029
     18024     18027     18030     18025     18024     18026     18025     18024     18027
     18026     18024     18027     18027     18030     18031     18027     18030     18032
     18027     18030     18033     18028     18027     18029     18028     18027     18030
     18029     18027     18030     18030     18033     18034     18030     18033     18035
     18030     18033     18036     18031     18030     18032     18031     18030     18033
     18032     18030     18033     18033     18036     18037     18033     18036     18038
     18033     18036     18039     18034     18033     18035     18034     18033     18036
     18035     18033     18036     18036     18039     18040     18036     18039     18041
     18036     18039     18042     18037     18036     18038     18037     18036     18039
     18038     18036     18039     18039     18042     18043     18039     18042     18044
     18039     18042     18045     18040     18039     18041     18040     18039     18042
     18041     18039     18042     18042     18045     18046     18042     18045     18047
     18042     18045     18048     18043     18042     18044     18043     18042     18045
     18044     18042     18045     18045     18048     18049     18045     18048     18050
     18045     18048     18051     18046     18045     18047     18046     18045     18048
     18047     18045     18048     18048     18051     18052     18048     18051     18053
     18048     18051     18054     18049     18048     18050     18049     18048     18051
     18050     18048     18051     18051     18054     18055     18051     18054     18056
     18051     18054     18057     18052     18051     18053     18052     18051     18054
     18053     18051     18054     18054     18057     18058     18054     18057     18059
     18054     18057     18060     18055     18054     18056     18055     18054     18057
     18056     18054     18057     18057     18060     18061     18057     18060     18062
     18057     18060     18063     18058     18057     18059     18058     18057     18060
     18059     18057     18060     18060     18063     18064     18060     18063     18065
     18060     18063     18066     18061     18060     18062     18061     18060     18063
     18062     18060     18063     18064     18063     18065     18064     18063     18066
     18065     18063     18066     18067     18071     18072     18067     18071     18073
     18067     18071     18074     18068     18067     18069     18068     18067     18070
     18068     18067     18071     18069     18067     18070     18069     18067     18071
     18070     18067     18071     18071     18074     18075     18071     18074     18076
     18071     18074     18081     18072     18071     18073     18072     18071     18074
     18073     18071     18074     18074     18081     18077     18075     18074     18076
     18075     18074     18081     18076     18074     18081     18077     18080     18082
     18078     18077     18079     18078     18077     18080     18078     18077     18081
     18079     18077     18080     18079     18077     18081     18080     18077     18081
     18080     18082     18083     18080     18082     18084     18080     18082     18085
     18082     18085     18086     18082     18085     18087     18082     18085     18093
     18083     18082     18084     18083     18082     18085     18084     18082     18085
     18085     18087     18088     18085     18093     18094     18085     18093     18095
     18085     18093     18096     18086     18085     18087     18086     18085     18093
     18087     18085     18093     18087     18088     18089     18087     18088     18090
     18088     18090     18091     18088     18090     18092     18088     18090     18102
     18089     18088     18090     18090     18102     18103     18090     18102     18104
     18090     18102     18105     18091     18090     18092     18091     18090     18102
     18092     18090     18102     18093     18096     18097     18094     18093     18095
     18094     18093     18096     18095     18093     18096     18096     18097     18098
     18096     18097     18099     18097     18099     18100     18097     18099     18101
     18097     18099     18146     18098     18097     18099     18099     18146     18147
     18099     18146     18148     18099     18146     18149     18100     18099     18101
     18100     18099     18146     18101     18099     18146     18102     18105     18106
     18102     18105     18107     18102     18105     18108     18103     18102     18104
     18103     18102     18105     18104     18102     18105     18105     18108     18109
     18105     18108     18110     18105     18108     18111     18106     18105     18107
     18106     18105     18108     18107     18105     18108     18108     18111     18112
     18108     18111     18113     18108     18111     18114     18109     18108     18110
     18109     18108     18111     18110     18108     18111     18111     18114     18115
     18111     18114     18116     18111     18114     18117     18112     18111     18113
     18112     18111     18114     18113     18111     18114     18114     18117     18118
     18114     18117     18119     18114     18117     18120     18115     18114     18116
     18115     18114     18117     18116     18114     18117     18117     18120     18121
     18117     18120     18122     18117     18120     18125     18118     18117     18119
     18118     18117     18120     18119     18117     18120     18120     18122     18123
     18120     18122     18124     18120     18122     18125     18120     18125     18122
     18120     18125     18126     18120     18125     18127     18121     18120     18122
     18121     18120     18125     18122     18120     18125     18122     18125     18126
     18122     18125     18127     18123     18122     18124     18123     18122     18125
     18124     18122     18125     18125     18127     18128     18125     18127     18129
     18125     18127     18130     18126     18125     18127     18127     18130     18131
     18127     18130     18132     18127     18130     18133     18128     18127     18129
     18128     18127     18130     18129     18127     18130     18130     18133     18134
     18130     18133     18135     18130     18133     18136     18131     18130     18132
     18131     18130     18133     18132     18130     18133     18133     18136     18137
     18133     18136     18138     18133     18136     18139     18134     18133     18135
     18134     18133     18136     18135     18133     18136     18136     18139     18140
     18136     18139     18141     18136     18139     18142     18137     18136     18138
     18137     18136     18139     18138     18136     18139     18139     18142     18143
     18139     18142     18144     18139     18142     18145     18140     18139     18141
     18140     18139     18142     18141     18139     18142     18143     18142     18144
     18143     18142     18145     18144     18142     18145     18146     18149     18150
     18146     18149     18151     18146     18149     18152     18147     18146     18148
     18147     18146     18149     18148     18146     18149     18149     18152     18153
     18149     18152     18154     18149     18152     18155     18150     18149     18151
     18150     18149     18152     18151     18149     18152     18152     18155     18156
     18152     18155     18157     18152     18155     18158     18153     18152     18154
     18153     18152     18155     18154     18152     18155     18155     18158     18159
     18155     18158     18160     18155     18158     18161     18156     18155     18157
     18156     18155     18158     18157     18155     18158     18158     18161     18162
     18158     18161     18163     18158     18161     18164     18159     18158     18160
     18159     18158     18161     18160     18158     18161     18161     18164     18165
     18161     18164     18166     18161     18164     18167     18162     18161     18163
     18162     18161     18164     18163     18161     18164     18164     18167     18168
     18164     18167     18169     18164     18167     18170     18165     18164     18166
     18165     18164     18167     18166     18164     18167     18167     18170     18171
     18167     18170     18172     18167     18170     18173     18168     18167     18169
     18168     18167     18170     18169     18167     18170     18170     18173     18174
     18170     18173     18175     18170     18173     18176     18171     18170     18172
     18171     18170     18173     18172     18170     18173     18173     18176     18177
     18173     18176     18178     18173     18176     18179     18174     18173     18175
     18174     18173     18176     18175     18173     18176     18176     18179     18180
     18176     18179     18181     18176     18179     18182     18177     18176     18178
     18177     18176     18179     18178     18176     18179     18179     18182     18183
     18179     18182     18184     18179     18182     18185     18180     18179     18181
     18180     18179     18182     18181     18179     18182     18183     18182     18184
     18183     18182     18185     18184     18182     18185     18186     18190     18191
     18186     18190     18192     18186     18190     18193     18187     18186     18188
     18187     18186     18189     18187     18186     18190     18188     18186     18189
     18188     18186     18190     18189     18186     18190     18190     18193     18194
     18190     18193     18195     18190     18193     18200     18191     18190     18192
     18191     18190     18193     18192     18190     18193     18193     18200     18196
     18194     18193     18195     18194     18193     18200     18195     18193     18200
     18196     18199     18201     18197     18196     18198     18197     18196     18199
     18197     18196     18200     18198     18196     18199     18198     18196     18200
     18199     18196     18200     18199     18201     18202     18199     18201     18203
     18199     18201     18204     18201     18204     18205     18201     18204     18206
     18201     18204     18212     18202     18201     18203     18202     18201     18204
     18203     18201     18204     18204     18206     18207     18204     18212     18213
     18204     18212     18214     18204     18212     18215     18205     18204     18206
     18205     18204     18212     18206     18204     18212     18206     18207     18208
     18206     18207     18209     18207     18209     18210     18207     18209     18211
     18207     18209     18221     18208     18207     18209     18209     18221     18222
     18209     18221     18223     18209     18221     18224     18210     18209     18211
     18210     18209     18221     18211     18209     18221     18212     18215     18216
     18213     18212     18214     18213     18212     18215     18214     18212     18215
     18215     18216     18217     18215     18216     18218     18216     18218     18219
     18216     18218     18220     18216     18218     18265     18217     18216     18218
     18218     18265     18266     18218     18265     18267     18218     18265     18268
     18219     18218     18220     18219     18218     18265     18220     18218     18265
     18221     18224     18225     18221     18224     18226     18221     18224     18227
     18222     18221     18223     18222     18221     18224     18223     18221     18224
     18224     18227     18228     18224     18227     18229     18224     18227     18230
     18225     18224     18226     18225     18224     18227     18226     18224     18227
     18227     18230     18231     18227     18230     18232     18227     18230     18233
     18228     18227     18229     18228     18227     18230     18229     18227     18230
     18230     18233     18234     18230     18233     18235     18230     18233     18236
     18231     18230     18232     18231     18230     18233     18232     18230     18233
     18233     18236     18237     18233     18236     18238     18233     18236     18239
     18234     18233     18235     18234     18233     18236     18235     18233     18236
     18236     18239     18240     18236     18239     18241     18236     18239     18244
     18237     18236     18238     18237     18236     18239     18238     18236     18239
     18239     18241     18242     18239     18241     18243     18239     18241     18244
     18239     18244     18241     18239     18244     18245     18239     18244     18246
     18240     18239     18241     18240     18239     18244     18241     18239     18244
     18241     18244     18245     18241     18244     18246     18242     18241     18243
     18242     18241     18244     18243     18241     18244     18244     18246     18247
     18244     18246     18248     18244     18246     18249     18245     18244     18246
     18246     18249     18250     18246     18249     18251     18246     18249     18252
     18247     18246     18248     18247     18246     18249     18248     18246     18249
     18249     18252     18253     18249     18252     18254     18249     18252     18255
     18250     18249     18251     18250     18249     18252     18251     18249     18252
     18252     18255     18256     18252     18255     18257     18252     18255     18258
     18253     18252     18254     18253     18252     18255     18254     18252     18255
     18255     18258     18259     18255     18258     18260     18255     18258     18261
     18256     18255     18257     18256     18255     18258     18257     18255     18258
     18258     18261     18262     18258     18261     18263     18258     18261     18264
     18259     18258     18260     18259     18258     18261     18260     18258     18261
     18262     18261     18263     18262     18261     18264     18263     18261     18264
     18265     18268     18269     18265     18268     18270     18265     18268     18271
     18266     18265     18267     18266     18265     18268     18267     18265     18268
     18268     18271     18272     18268     18271     18273     18268     18271     18274
     18269     18268     18270     18269     18268     18271     18270     18268     18271
     18271     18274     18275     18271     18274     18276     18271     18274     18277
     18272     18271     18273     18272     18271     18274     18273     18271     18274
     18274     18277     18278     18274     18277     18279     18274     18277     18280
     18275     18274     18276     18275     18274     18277     18276     18274     18277
     18277     18280     18281     18277     18280     18282     18277     18280     18283
     18278     18277     18279     18278     18277     18280     18279     18277     18280
     18280     18283     18284     18280     18283     18285     18280     18283     18286
     18281     18280     18282     18281     18280     18283     18282     18280     18283
     18283     18286     18287     18283     18286     18288     18283     18286     18289
     18284     18283     18285     18284     18283     18286     18285     18283     18286
     18286     18289     18290     18286     18289     18291     18286     18289     18292
     18287     18286     18288     18287     18286     18289     18288     18286     18289
     18289     18292     18293     18289     18292     18294     18289     18292     18295
     18290     18289     18291     18290     18289     18292     18291     18289     18292
     18292     18295     18296     18292     18295     18297     18292     18295     18298
     18293     18292     18294     18293     18292     18295     18294     18292     18295
     18295     18298     18299     18295     18298     18300     18295     18298     18301
     18296     18295     18297     18296     18295     18298     18297     18295     18298
     18298     18301     18302     18298     18301     18303     18298     18301     18304
     18299     18298     18300     18299     18298     18301     18300     18298     18301
     18301     18304     18305     18301     18304     18306     18301     18304     18307
     18302     18301     18303     18302     18301     18304     18303     18301     18304
     18305     18304     18306     18305     18304     18307     18306     18304     18307
     18308     18312     18313     18308     18312     18314     18308     18312     18315
     18309     18308     18310     18309     18308     18311     18309     18308     18312
     18310     18308     18311     18310     18308     18312     18311     18308     18312
     18312     18315     18316     18312     18315     18317     18312     18315     18322
     18313     18312     18314     18313     18312     18315     18314     18312     18315
     18315     18322     18318     18316     18315     18317     18316     18315     18322
     18317     18315     18322     18318     18321     18323     18319     18318     18320
     18319     18318     18321     18319     18318     18322     18320     18318     18321
     18320     18318     18322     18321     18318     18322     18321     18323     18324
     18321     18323     18325     18321     18323     18326     18323     18326     18327
     18323     18326     18328     18323     18326     18334     18324     18323     18325
     18324     18323     18326     18325     18323     18326     18326     18328     18329
     18326     18334     18335     18326     18334     18336     18326     18334     18337
     18327     18326     18328     18327     18326     18334     18328     18326     18334
     18328     18329     18330     18328     18329     18331     18329     18331     18332
     18329     18331     18333     18329     18331     18343     18330     18329     18331
     18331     18343     18344     18331     18343     18345     18331     18343     18346
     18332     18331     18333     18332     18331     18343     18333     18331     18343
     18334     18337     18338     18335     18334     18336     18335     18334     18337
     18336     18334     18337     18337     18338     18339     18337     18338     18340
     18338     18340     18341     18338     18340     18342     18338     18340     18390
     18339     18338     18340     18340     18390     18391     18340     18390     18392
     18340     18390     18393     18341     18340     18342     18341     18340     18390
     18342     18340     18390     18343     18346     18347     18343     18346     18348
     18343     18346     18349     18344     18343     18345     18344     18343     18346
     18345     18343     18346     18346     18349     18350     18346     18349     18351
     18346     18349     18352     18347     18346     18348     18347     18346     18349
     18348     18346     18349     18349     18352     18353     18349     18352     18354
     18349     18352     18355     18350     18349     18351     18350     18349     18352
     18351     18349     18352     18352     18355     18356     18352     18355     18357
     18352     18355     18358     18353     18352     18354     18353     18352     18355
     18354     18352     18355     18355     18358     18359     18355     18358     18360
     18355     18358     18361     18356     18355     18357     18356     18355     18358
     18357     18355     18358     18358     18361     18362     18358     18361     18363
     18359     18358     18360     18359     18358     18361     18360     18358     18361
     18361     18363     18364     18361     18363     18365     18362     18361     18363
     18363     18365     18366     18363     18365     18367     18363     18365     18368
     18364     18363     18365     18365     18368     18369     18365     18368     18370
     18365     18368     18371     18366     18365     18367     18366     18365     18368
     18367     18365     18368     18368     18371     18372     18368     18371     18373
     18368     18371     18374     18369     18368     18370     18369     18368     18371
     18370     18368     18371     18371     18374     18375     18371     18374     18376
     18371     18374     18377     18372     18371     18373     18372     18371     18374
     18373     18371     18374     18374     18377     18378     18374     18377     18379
     18374     18377     18380     18375     18374     18376     18375     18374     18377
     18376     18374     18377     18377     18380     18381     18377     18380     18382
     18377     18380     18383     18378     18377     18379     18378     18377     18380
     18379     18377     18380     18380     18383     18384     18380     18383     18385
     18380     18383     18386     18381     18380     18382     18381     18380     18383
     18382     18380     18383     18383     18386     18387     18383     18386     18388
     18383     18386     18389     18384     18383     18385     18384     18383     18386
     18385     18383     18386     18387     18386     18388     18387     18386     18389
     18388     18386     18389     18390     18393     18394     18390     18393     18395
     18390     18393     18396     18391     18390     18392     18391     18390     18393
     18392     18390     18393     18393     18396     18397     18393     18396     18398
     18393     18396     18399     18394     18393     18395     18394     18393     18396
     18395     18393     18396     18396     18399     18400     18396     18399     18401
     18396     18399     18402     18397     18396     18398     18397     18396     18399
     18398     18396     18399     18399     18402     18403     18399     18402     18404
     18399     18402     18405     18400     18399     18401     18400     18399     18402
     18401     18399     18402     18402     18405     18406     18402     18405     18407
     18402     18405     18408     18403     18402     18404     18403     18402     18405
     18404     18402     18405     18405     18408     18409     18405     18408     18410
     18405     18408     18411     18406     18405     18407     18406     18405     18408
     18407     18405     18408     18408     18411     18412     18408     18411     18413
     18408     18411     18414     18409     18408     18410     18409     18408     18411
     18410     18408     18411     18411     18414     18415     18411     18414     18416
     18411     18414     18417     18412     18411     18413     18412     18411     18414
     18413     18411     18414     18414     18417     18418     18414     18417     18419
     18414     18417     18420     18415     18414     18416     18415     18414     18417
     18416     18414     18417     18417     18420     18421     18417     18420     18422
     18417     18420     18423     18418     18417     18419     18418     18417     18420
     18419     18417     18420     18420     18423     18424     18420     18423     18425
     18420     18423     18426     18421     18420     18422     18421     18420     18423
     18422     18420     18423     18423     18426     18427     18423     18426     18428
     18423     18426     18429     18424     18423     18425     18424     18423     18426
     18425     18423     18426     18426     18429     18430     18426     18429     18431
     18426     18429     18432     18427     18426     18428     18427     18426     18429
     18428     18426     18429     18430     18429     18431     18430     18429     18432
     18431     18429     18432     18433     18437     18438     18433     18437     18439
     18433     18437     18440     18434     18433     18435     18434     18433     18436
     18434     18433     18437     18435     18433     18436     18435     18433     18437
     18436     18433     18437     18437     18440     18441     18437     18440     18442
     18437     18440     18447     18438     18437     18439     18438     18437     18440
     18439     18437     18440     18440     18447     18443     18441     18440     18442
     18441     18440     18447     18442     18440     18447     18443     18446     18448
     18444     18443     18445     18444     18443     18446     18444     18443     18447
     18445     18443     18446     18445     18443     18447     18446     18443     18447
     18446     18448     18449     18446     18448     18450     18446     18448     18451
     18448     18451     18452     18448     18451     18453     18448     18451     18459
     18449     18448     18450     18449     18448     18451     18450     18448     18451
     18451     18453     18454     18451     18459     18460     18451     18459     18461
     18451     18459     18462     18452     18451     18453     18452     18451     18459
     18453     18451     18459     18453     18454     18455     18453     18454     18456
     18454     18456     18457     18454     18456     18458     18454     18456     18468
     18455     18454     18456     18456     18468     18469     18456     18468     18470
     18456     18468     18471     18457     18456     18458     18457     18456     18468
     18458     18456     18468     18459     18462     18463     18460     18459     18461
     18460     18459     18462     18461     18459     18462     18462     18463     18464
     18462     18463     18465     18463     18465     18466     18463     18465     18467
     18463     18465     18512     18464     18463     18465     18465     18512     18513
     18465     18512     18514     18465     18512     18515     18466     18465     18467
     18466     18465     18512     18467     18465     18512     18468     18471     18472
     18468     18471     18473     18468     18471     18474     18469     18468     18470
     18469     18468     18471     18470     18468     18471     18471     18474     18475
     18471     18474     18476     18471     18474     18477     18472     18471     18473
     18472     18471     18474     18473     18471     18474     18474     18477     18478
     18474     18477     18479     18474     18477     18480     18475     18474     18476
     18475     18474     18477     18476     18474     18477     18477     18480     18481
     18477     18480     18482     18477     18480     18483     18478     18477     18479
     18478     18477     18480     18479     18477     18480     18480     18483     18484
     18480     18483     18485     18480     18483     18486     18481     18480     18482
     18481     18480     18483     18482     18480     18483     18483     18486     18487
     18483     18486     18488     18483     18486     18491     18484     18483     18485
     18484     18483     18486     18485     18483     18486     18486     18488     18489
     18486     18488     18490     18486     18488     18491     18486     18491     18488
     18486     18491     18492     18486     18491     18493     18487     18486     18488
     18487     18486     18491     18488     18486     18491     18488     18491     18492
     18488     18491     18493     18489     18488     18490     18489     18488     18491
     18490     18488     18491     18491     18493     18494     18491     18493     18495
     18491     18493     18496     18492     18491     18493     18493     18496     18497
     18493     18496     18498     18493     18496     18499     18494     18493     18495
     18494     18493     18496     18495     18493     18496     18496     18499     18500
     18496     18499     18501     18496     18499     18502     18497     18496     18498
     18497     18496     18499     18498     18496     18499     18499     18502     18503
     18499     18502     18504     18499     18502     18505     18500     18499     18501
     18500     18499     18502     18501     18499     18502     18502     18505     18506
     18502     18505     18507     18502     18505     18508     18503     18502     18504
     18503     18502     18505     18504     18502     18505     18505     18508     18509
     18505     18508     18510     18505     18508     18511     18506     18505     18507
     18506     18505     18508     18507     18505     18508     18509     18508     18510
     18509     18508     18511     18510     18508     18511     18512     18515     18516
     18512     18515     18517     18512     18515     18518     18513     18512     18514
     18513     18512     18515     18514     18512     18515     18515     18518     18519
     18515     18518     18520     18515     18518     18521     18516     18515     18517
     18516     18515     18518     18517     18515     18518     18518     18521     18522
     18518     18521     18523     18518     18521     18524     18519     18518     18520
     18519     18518     18521     18520     18518     18521     18521     18524     18525
     18521     18524     18526     18521     18524     18527     18522     18521     18523
     18522     18521     18524     18523     18521     18524     18524     18527     18528
     18524     18527     18529     18524     18527     18530     18525     18524     18526
     18525     18524     18527     18526     18524     18527     18527     18530     18531
     18527     18530     18532     18527     18530     18533     18528     18527     18529
     18528     18527     18530     18529     18527     18530     18530     18533     18534
     18530     18533     18535     18530     18533     18536     18531     18530     18532
     18531     18530     18533     18532     18530     18533     18533     18536     18537
     18533     18536     18538     18533     18536     18539     18534     18533     18535
     18534     18533     18536     18535     18533     18536     18536     18539     18540
     18536     18539     18541     18536     18539     18542     18537     18536     18538
     18537     18536     18539     18538     18536     18539     18539     18542     18543
     18539     18542     18544     18539     18542     18545     18540     18539     18541
     18540     18539     18542     18541     18539     18542     18542     18545     18546
     18542     18545     18547     18542     18545     18548     18543     18542     18544
     18543     18542     18545     18544     18542     18545     18545     18548     18549
     18545     18548     18550     18545     18548     18551     18546     18545     18547
     18546     18545     18548     18547     18545     18548     18548     18551     18552
     18548     18551     18553     18548     18551     18554     18549     18548     18550
     18549     18548     18551     18550     18548     18551     18552     18551     18553
     18552     18551     18554     18553     18551     18554     18555     18559     18560
     18555     18559     18561     18555     18559     18562     18556     18555     18557
     18556     18555     18558     18556     18555     18559     18557     18555     18558
     18557     18555     18559     18558     18555     18559     18559     18562     18563
     18559     18562     18564     18559     18562     18569     18560     18559     18561
     18560     18559     18562     18561     18559     18562     18562     18569     18565
     18563     18562     18564     18563     18562     18569     18564     18562     18569
     18565     18568     18570     18566     18565     18567     18566     18565     18568
     18566     18565     18569     18567     18565     18568     18567     18565     18569
     18568     18565     18569     18568     18570     18571     18568     18570     18572
     18568     18570     18573     18570     18573     18574     18570     18573     18575
     18570     18573     18581     18571     18570     18572     18571     18570     18573
     18572     18570     18573     18573     18575     18576     18573     18581     18582
     18573     18581     18583     18573     18581     18584     18574     18573     18575
     18574     18573     18581     18575     18573     18581     18575     18576     18577
     18575     18576     18578     18576     18578     18579     18576     18578     18580
     18576     18578     18590     18577     18576     18578     18578     18590     18591
     18578     18590     18592     18578     18590     18593     18579     18578     18580
     18579     18578     18590     18580     18578     18590     18581     18584     18585
     18582     18581     18583     18582     18581     18584     18583     18581     18584
     18584     18585     18586     18584     18585     18587     18585     18587     18588
     18585     18587     18589     18585     18587     18634     18586     18585     18587
     18587     18634     18635     18587     18634     18636     18587     18634     18637
     18588     18587     18589     18588     18587     18634     18589     18587     18634
     18590     18593     18594     18590     18593     18595     18590     18593     18596
     18591     18590     18592     18591     18590     18593     18592     18590     18593
     18593     18596     18597     18593     18596     18598     18593     18596     18599
     18594     18593     18595     18594     18593     18596     18595     18593     18596
     18596     18599     18600     18596     18599     18601     18596     18599     18602
     18597     18596     18598     18597     18596     18599     18598     18596     18599
     18599     18602     18603     18599     18602     18604     18599     18602     18605
     18600     18599     18601     18600     18599     18602     18601     18599     18602
     18602     18605     18606     18602     18605     18607     18602     18605     18608
     18603     18602     18604     18603     18602     18605     18604     18602     18605
     18605     18608     18609     18605     18608     18610     18605     18608     18613
     18606     18605     18607     18606     18605     18608     18607     18605     18608
     18608     18610     18611     18608     18610     18612     18608     18610     18613
     18608     18613     18610     18608     18613     18614     18608     18613     18615
     18609     18608     18610     18609     18608     18613     18610     18608     18613
     18610     18613     18614     18610     18613     18615     18611     18610     18612
     18611     18610     18613     18612     18610     18613     18613     18615     18616
     18613     18615     18617     18613     18615     18618     18614     18613     18615
     18615     18618     18619     18615     18618     18620     18615     18618     18621
     18616     18615     18617     18616     18615     18618     18617     18615     18618
     18618     18621     18622     18618     18621     18623     18618     18621     18624
     18619     18618     18620     18619     18618     18621     18620     18618     18621
     18621     18624     18625     18621     18624     18626     18621     18624     18627
     18622     18621     18623     18622     18621     18624     18623     18621     18624
     18624     18627     18628     18624     18627     18629     18624     18627     18630
     18625     18624     18626     18625     18624     18627     18626     18624     18627
     18627     18630     18631     18627     18630     18632     18627     18630     18633
     18628     18627     18629     18628     18627     18630     18629     18627     18630
     18631     18630     18632     18631     18630     18633     18632     18630     18633
     18634     18637     18638     18634     18637     18639     18634     18637     18640
     18635     18634     18636     18635     18634     18637     18636     18634     18637
     18637     18640     18641     18637     18640     18642     18637     18640     18643
     18638     18637     18639     18638     18637     18640     18639     18637     18640
     18640     18643     18644     18640     18643     18645     18640     18643     18646
     18641     18640     18642     18641     18640     18643     18642     18640     18643
     18643     18646     18647     18643     18646     18648     18643     18646     18649
     18644     18643     18645     18644     18643     18646     18645     18643     18646
     18646     18649     18650     18646     18649     18651     18646     18649     18652
     18647     18646     18648     18647     18646     18649     18648     18646     18649
     18649     18652     18653     18649     18652     18654     18649     18652     18655
     18650     18649     18651     18650     18649     18652     18651     18649     18652
     18652     18655     18656     18652     18655     18657     18652     18655     18658
     18653     18652     18654     18653     18652     18655     18654     18652     18655
     18655     18658     18659     18655     18658     18660     18655     18658     18661
     18656     18655     18657     18656     18655     18658     18657     18655     18658
     18658     18661     18662     18658     18661     18663     18658     18661     18664
     18659     18658     18660     18659     18658     18661     18660     18658     18661
     18661     18664     18665     18661     18664     18666     18661     18664     18667
     18662     18661     18663     18662     18661     18664     18663     18661     18664
     18664     18667     18668     18664     18667     18669     18664     18667     18670
     18665     18664     18666     18665     18664     18667     18666     18664     18667
     18667     18670     18671     18667     18670     18672     18667     18670     18673
     18668     18667     18669     18668     18667     18670     18669     18667     18670
     18670     18673     18674     18670     18673     18675     18670     18673     18676
     18671     18670     18672     18671     18670     18673     18672     18670     18673
     18674     18673     18675     18674     18673     18676     18675     18673     18676
     18677     18681     18682     18677     18681     18683     18677     18681     18684
     18678     18677     18679     18678     18677     18680     18678     18677     18681
     18679     18677     18680     18679     18677     18681     18680     18677     18681
     18681     18684     18685     18681     18684     18686     18681     18684     18691
     18682     18681     18683     18682     18681     18684     18683     18681     18684
     18684     18691     18687     18685     18684     18686     18685     18684     18691
     18686     18684     18691     18687     18690     18692     18688     18687     18689
     18688     18687     18690     18688     18687     18691     18689     18687     18690
     18689     18687     18691     18690     18687     18691     18690     18692     18693
     18690     18692     18694     18690     18692     18695     18692     18695     18696
     18692     18695     18697     18692     18695     18703     18693     18692     18694
     18693     18692     18695     18694     18692     18695     18695     18697     18698
     18695     18703     18704     18695     18703     18705     18695     18703     18706
     18696     18695     18697     18696     18695     18703     18697     18695     18703
     18697     18698     18699     18697     18698     18700     18698     18700     18701
     18698     18700     18702     18698     18700     18712     18699     18698     18700
     18700     18712     18713     18700     18712     18714     18700     18712     18715
     18701     18700     18702     18701     18700     18712     18702     18700     18712
     18703     18706     18707     18704     18703     18705     18704     18703     18706
     18705     18703     18706     18706     18707     18708     18706     18707     18709
     18707     18709     18710     18707     18709     18711     18707     18709     18756
     18708     18707     18709     18709     18756     18757     18709     18756     18758
     18709     18756     18759     18710     18709     18711     18710     18709     18756
     18711     18709     18756     18712     18715     18716     18712     18715     18717
     18712     18715     18718     18713     18712     18714     18713     18712     18715
     18714     18712     18715     18715     18718     18719     18715     18718     18720
     18715     18718     18721     18716     18715     18717     18716     18715     18718
     18717     18715     18718     18718     18721     18722     18718     18721     18723
     18718     18721     18724     18719     18718     18720     18719     18718     18721
     18720     18718     18721     18721     18724     18725     18721     18724     18726
     18721     18724     18727     18722     18721     18723     18722     18721     18724
     18723     18721     18724     18724     18727     18728     18724     18727     18729
     18724     18727     18730     18725     18724     18726     18725     18724     18727
     18726     18724     18727     18727     18730     18731     18727     18730     18732
     18727     18730     18735     18728     18727     18729     18728     18727     18730
     18729     18727     18730     18730     18732     18733     18730     18732     18734
     18730     18732     18735     18730     18735     18732     18730     18735     18736
     18730     18735     18737     18731     18730     18732     18731     18730     18735
     18732     18730     18735     18732     18735     18736     18732     18735     18737
     18733     18732     18734     18733     18732     18735     18734     18732     18735
     18735     18737     18738     18735     18737     18739     18735     18737     18740
     18736     18735     18737     18737     18740     18741     18737     18740     18742
     18737     18740     18743     18738     18737     18739     18738     18737     18740
     18739     18737     18740     18740     18743     18744     18740     18743     18745
     18740     18743     18746     18741     18740     18742     18741     18740     18743
     18742     18740     18743     18743     18746     18747     18743     18746     18748
     18743     18746     18749     18744     18743     18745     18744     18743     18746
     18745     18743     18746     18746     18749     18750     18746     18749     18751
     18746     18749     18752     18747     18746     18748     18747     18746     18749
     18748     18746     18749     18749     18752     18753     18749     18752     18754
     18749     18752     18755     18750     18749     18751     18750     18749     18752
     18751     18749     18752     18753     18752     18754     18753     18752     18755
     18754     18752     18755     18756     18759     18760     18756     18759     18761
     18756     18759     18762     18757     18756     18758     18757     18756     18759
     18758     18756     18759     18759     18762     18763     18759     18762     18764
     18759     18762     18765     18760     18759     18761     18760     18759     18762
     18761     18759     18762     18762     18765     18766     18762     18765     18767
     18762     18765     18768     18763     18762     18764     18763     18762     18765
     18764     18762     18765     18765     18768     18769     18765     18768     18770
     18765     18768     18771     18766     18765     18767     18766     18765     18768
     18767     18765     18768     18768     18771     18772     18768     18771     18773
     18768     18771     18774     18769     18768     18770     18769     18768     18771
     18770     18768     18771     18771     18774     18775     18771     18774     18776
     18771     18774     18777     18772     18771     18773     18772     18771     18774
     18773     18771     18774     18774     18777     18778     18774     18777     18779
     18774     18777     18780     18775     18774     18776     18775     18774     18777
     18776     18774     18777     18777     18780     18781     18777     18780     18782
     18777     18780     18783     18778     18777     18779     18778     18777     18780
     18779     18777     18780     18780     18783     18784     18780     18783     18785
     18780     18783     18786     18781     18780     18782     18781     18780     18783
     18782     18780     18783     18783     18786     18787     18783     18786     18788
     18783     18786     18789     18784     18783     18785     18784     18783     18786
     18785     18783     18786     18786     18789     18790     18786     18789     18791
     18786     18789     18792     18787     18786     18788     18787     18786     18789
     18788     18786     18789     18789     18792     18793     18789     18792     18794
     18789     18792     18795     18790     18789     18791     18790     18789     18792
     18791     18789     18792     18792     18795     18796     18792     18795     18797
     18792     18795     18798     18793     18792     18794     18793     18792     18795
     18794     18792     18795     18796     18795     18797     18796     18795     18798
     18797     18795     18798     18799     18803     18804     18799     18803     18805
     18799     18803     18806     18800     18799     18801     18800     18799     18802
     18800     18799     18803     18801     18799     18802     18801     18799     18803
     18802     18799     18803     18803     18806     18807     18803     18806     18808
     18803     18806     18813     18804     18803     18805     18804     18803     18806
     18805     18803     18806     18806     18813     18809     18807     18806     18808
     18807     18806     18813     18808     18806     18813     18809     18812     18814
     18810     18809     18811     18810     18809     18812     18810     18809     18813
     18811     18809     18812     18811     18809     18813     18812     18809     18813
     18812     18814     18815     18812     18814     18816     18812     18814     18817
     18814     18817     18818     18814     18817     18819     18814     18817     18825
     18815     18814     18816     18815     18814     18817     18816     18814     18817
     18817     18819     18820     18817     18825     18826     18817     18825     18827
     18817     18825     18828     18818     18817     18819     18818     18817     18825
     18819     18817     18825     18819     18820     18821     18819     18820     18822
     18820     18822     18823     18820     18822     18824     18820     18822     18834
     18821     18820     18822     18822     18834     18835     18822     18834     18836
     18822     18834     18837     18823     18822     18824     18823     18822     18834
     18824     18822     18834     18825     18828     18829     18826     18825     18827
     18826     18825     18828     18827     18825     18828     18828     18829     18830
     18828     18829     18831     18829     18831     18832     18829     18831     18833
     18829     18831     18878     18830     18829     18831     18831     18878     18879
     18831     18878     18880     18831     18878     18881     18832     18831     18833
     18832     18831     18878     18833     18831     18878     18834     18837     18838
     18834     18837     18839     18834     18837     18840     18835     18834     18836
     18835     18834     18837     18836     18834     18837     18837     18840     18841
     18837     18840     18842     18837     18840     18843     18838     18837     18839
     18838     18837     18840     18839     18837     18840     18840     18843     18844
     18840     18843     18845     18840     18843     18846     18841     18840     18842
     18841     18840     18843     18842     18840     18843     18843     18846     18847
     18843     18846     18848     18843     18846     18849     18844     18843     18845
     18844     18843     18846     18845     18843     18846     18846     18849     18850
     18846     18849     18851     18846     18849     18852     18847     18846     18848
     18847     18846     18849     18848     18846     18849     18849     18852     18853
     18849     18852     18854     18849     18852     18857     18850     18849     18851
     18850     18849     18852     18851     18849     18852     18852     18854     18855
     18852     18854     18856     18852     18854     18857     18852     18857     18854
     18852     18857     18858     18852     18857     18859     18853     18852     18854
     18853     18852     18857     18854     18852     18857     18854     18857     18858
     18854     18857     18859     18855     18854     18856     18855     18854     18857
     18856     18854     18857     18857     18859     18860     18857     18859     18861
     18857     18859     18862     18858     18857     18859     18859     18862     18863
     18859     18862     18864     18859     18862     18865     18860     18859     18861
     18860     18859     18862     18861     18859     18862     18862     18865     18866
     18862     18865     18867     18862     18865     18868     18863     18862     18864
     18863     18862     18865     18864     18862     18865     18865     18868     18869
     18865     18868     18870     18865     18868     18871     18866     18865     18867
     18866     18865     18868     18867     18865     18868     18868     18871     18872
     18868     18871     18873     18868     18871     18874     18869     18868     18870
     18869     18868     18871     18870     18868     18871     18871     18874     18875
     18871     18874     18876     18871     18874     18877     18872     18871     18873
     18872     18871     18874     18873     18871     18874     18875     18874     18876
     18875     18874     18877     18876     18874     18877     18878     18881     18882
     18878     18881     18883     18878     18881     18884     18879     18878     18880
     18879     18878     18881     18880     18878     18881     18881     18884     18885
     18881     18884     18886     18881     18884     18887     18882     18881     18883
     18882     18881     18884     18883     18881     18884     18884     18887     18888
     18884     18887     18889     18884     18887     18890     18885     18884     18886
     18885     18884     18887     18886     18884     18887     18887     18890     18891
     18887     18890     18892     18887     18890     18893     18888     18887     18889
     18888     18887     18890     18889     18887     18890     18890     18893     18894
     18890     18893     18895     18890     18893     18896     18891     18890     18892
     18891     18890     18893     18892     18890     18893     18893     18896     18897
     18893     18896     18898     18893     18896     18899     18894     18893     18895
     18894     18893     18896     18895     18893     18896     18896     18899     18900
     18896     18899     18901     18896     18899     18902     18897     18896     18898
     18897     18896     18899     18898     18896     18899     18899     18902     18903
     18899     18902     18904     18899     18902     18905     18900     18899     18901
     18900     18899     18902     18901     18899     18902     18902     18905     18906
     18902     18905     18907     18902     18905     18908     18903     18902     18904
     18903     18902     18905     18904     18902     18905     18905     18908     18909
     18905     18908     18910     18905     18908     18911     18906     18905     18907
     18906     18905     18908     18907     18905     18908     18908     18911     18912
     18908     18911     18913     18908     18911     18914     18909     18908     18910
     18909     18908     18911     18910     18908     18911     18911     18914     18915
     18911     18914     18916     18911     18914     18917     18912     18911     18913
     18912     18911     18914     18913     18911     18914     18914     18917     18918
     18914     18917     18919     18914     18917     18920     18915     18914     18916
     18915     18914     18917     18916     18914     18917     18918     18917     18919
     18918     18917     18920     18919     18917     18920     18921     18925     18926
     18921     18925     18927     18921     18925     18928     18922     18921     18923
     18922     18921     18924     18922     18921     18925     18923     18921     18924
     18923     18921     18925     18924     18921     18925     18925     18928     18929
     18925     18928     18930     18925     18928     18935     18926     18925     18927
     18926     18925     18928     18927     18925     18928     18928     18935     18931
     18929     18928     18930     18929     18928     18935     18930     18928     18935
     18931     18934     18936     18932     18931     18933     18932     18931     18934
     18932     18931     18935     18933     18931     18934     18933     18931     18935
     18934     18931     18935     18934     18936     18937     18934     18936     18938
     18934     18936     18939     18936     18939     18940     18936     18939     18941
     18936     18939     18947     18937     18936     18938     18937     18936     18939
     18938     18936     18939     18939     18941     18942     18939     18947     18948
     18939     18947     18949     18939     18947     18950     18940     18939     18941
     18940     18939     18947     18941     18939     18947     18941     18942     18943
     18941     18942     18944     18942     18944     18945     18942     18944     18946
     18942     18944     18956     18943     18942     18944     18944     18956     18957
     18944     18956     18958     18944     18956     18959     18945     18944     18946
     18945     18944     18956     18946     18944     18956     18947     18950     18951
     18948     18947     18949     18948     18947     18950     18949     18947     18950
     18950     18951     18952     18950     18951     18953     18951     18953     18954
     18951     18953     18955     18951     18953     19000     18952     18951     18953
     18953     19000     19001     18953     19000     19002     18953     19000     19003
     18954     18953     18955     18954     18953     19000     18955     18953     19000
     18956     18959     18960     18956     18959     18961     18956     18959     18962
     18957     18956     18958     18957     18956     18959     18958     18956     18959
     18959     18962     18963     18959     18962     18964     18959     18962     18965
     18960     18959     18961     18960     18959     18962     18961     18959     18962
     18962     18965     18966     18962     18965     18967     18962     18965     18968
     18963     18962     18964     18963     18962     18965     18964     18962     18965
     18965     18968     18969     18965     18968     18970     18965     18968     18971
     18966     18965     18967     18966     18965     18968     18967     18965     18968
     18968     18971     18972     18968     18971     18973     18968     18971     18974
     18969     18968     18970     18969     18968     18971     18970     18968     18971
     18971     18974     18975     18971     18974     18976     18971     18974     18979
     18972     18971     18973     18972     18971     18974     18973     18971     18974
     18974     18976     18977     18974     18976     18978     18974     18976     18979
     18974     18979     18976     18974     18979     18980     18974     18979     18981
     18975     18974     18976     18975     18974     18979     18976     18974     18979
     18976     18979     18980     18976     18979     18981     18977     18976     18978
     18977     18976     18979     18978     18976     18979     18979     18981     18982
     18979     18981     18983     18979     18981     18984     18980     18979     18981
     18981     18984     18985     18981     18984     18986     18981     18984     18987
     18982     18981     18983     18982     18981     18984     18983     18981     18984
     18984     18987     18988     18984     18987     18989     18984     18987     18990
     18985     18984     18986     18985     18984     18987     18986     18984     18987
     18987     18990     18991     18987     18990     18992     18987     18990     18993
     18988     18987     18989     18988     18987     18990     18989     18987     18990
     18990     18993     18994     18990     18993     18995     18990     18993     18996
     18991     18990     18992     18991     18990     18993     18992     18990     18993
     18993     18996     18997     18993     18996     18998     18993     18996     18999
     18994     18993     18995     18994     18993     18996     18995     18993     18996
     18997     18996     18998     18997     18996     18999     18998     18996     18999
     19000     19003     19004     19000     19003     19005     19000     19003     19006
     19001     19000     19002     19001     19000     19003     19002     19000     19003
     19003     19006     19007     19003     19006     19008     19003     19006     19009
     19004     19003     19005     19004     19003     19006     19005     19003     19006
     19006     19009     19010     19006     19009     19011     19006     19009     19012
     19007     19006     19008     19007     19006     19009     19008     19006     19009
     19009     19012     19013     19009     19012     19014     19009     19012     19015
     19010     19009     19011     19010     19009     19012     19011     19009     19012
     19012     19015     19016     19012     19015     19017     19012     19015     19018
     19013     19012     19014     19013     19012     19015     19014     19012     19015
     19015     19018     19019     19015     19018     19020     19015     19018     19021
     19016     19015     19017     19016     19015     19018     19017     19015     19018
     19018     19021     19022     19018     19021     19023     19018     19021     19024
     19019     19018     19020     19019     19018     19021     19020     19018     19021
     19021     19024     19025     19021     19024     19026     19021     19024     19027
     19022     19021     19023     19022     19021     19024     19023     19021     19024
     19024     19027     19028     19024     19027     19029     19024     19027     19030
     19025     19024     19026     19025     19024     19027     19026     19024     19027
     19027     19030     19031     19027     19030     19032     19027     19030     19033
     19028     19027     19029     19028     19027     19030     19029     19027     19030
     19030     19033     19034     19030     19033     19035     19030     19033     19036
     19031     19030     19032     19031     19030     19033     19032     19030     19033
     19033     19036     19037     19033     19036     19038     19033     19036     19039
     19034     19033     19035     19034     19033     19036     19035     19033     19036
     19036     19039     19040     19036     19039     19041     19036     19039     19042
     19037     19036     19038     19037     19036     19039     19038     19036     19039
     19040     19039     19041     19040     19039     19042     19041     19039     19042
     19043     19047     19048     19043     19047     19049     19043     19047     19050
     19044     19043     19045     19044     19043     19046     19044     19043     19047
     19045     19043     19046     19045     19043     19047     19046     19043     19047
     19047     19050     19051     19047     19050     19052     19047     19050     19057
     19048     19047     19049     19048     19047     19050     19049     19047     19050
     19050     19057     19053     19051     19050     19052     19051     19050     19057
     19052     19050     19057     19053     19056     19058     19054     19053     19055
     19054     19053     19056     19054     19053     19057     19055     19053     19056
     19055     19053     19057     19056     19053     19057     19056     19058     19059
     19056     19058     19060     19056     19058     19061     19058     19061     19062
     19058     19061     19063     19058     19061     19069     19059     19058     19060
     19059     19058     19061     19060     19058     19061     19061     19063     19064
     19061     19069     19070     19061     19069     19071     19061     19069     19072
     19062     19061     19063     19062     19061     19069     19063     19061     19069
     19063     19064     19065     19063     19064     19066     19064     19066     19067
     19064     19066     19068     19064     19066     19078     19065     19064     19066
     19066     19078     19079     19066     19078     19080     19066     19078     19081
     19067     19066     19068     19067     19066     19078     19068     19066     19078
     19069     19072     19073     19070     19069     19071     19070     19069     19072
     19071     19069     19072     19072     19073     19074     19072     19073     19075
     19073     19075     19076     19073     19075     19077     19073     19075     19122
     19074     19073     19075     19075     19122     19123     19075     19122     19124
     19075     19122     19125     19076     19075     19077     19076     19075     19122
     19077     19075     19122     19078     19081     19082     19078     19081     19083
     19078     19081     19084     19079     19078     19080     19079     19078     19081
     19080     19078     19081     19081     19084     19085     19081     19084     19086
     19081     19084     19087     19082     19081     19083     19082     19081     19084
     19083     19081     19084     19084     19087     19088     19084     19087     19089
     19084     19087     19090     19085     19084     19086     19085     19084     19087
     19086     19084     19087     19087     19090     19091     19087     19090     19092
     19087     19090     19093     19088     19087     19089     19088     19087     19090
     19089     19087     19090     19090     19093     19094     19090     19093     19095
     19090     19093     19096     19091     19090     19092     19091     19090     19093
     19092     19090     19093     19093     19096     19097     19093     19096     19098
     19093     19096     19101     19094     19093     19095     19094     19093     19096
     19095     19093     19096     19096     19098     19099     19096     19098     19100
     19096     19098     19101     19096     19101     19098     19096     19101     19102
     19096     19101     19103     19097     19096     19098     19097     19096     19101
     19098     19096     19101     19098     19101     19102     19098     19101     19103
     19099     19098     19100     19099     19098     19101     19100     19098     19101
     19101     19103     19104     19101     19103     19105     19101     19103     19106
     19102     19101     19103     19103     19106     19107     19103     19106     19108
     19103     19106     19109     19104     19103     19105     19104     19103     19106
     19105     19103     19106     19106     19109     19110     19106     19109     19111
     19106     19109     19112     19107     19106     19108     19107     19106     19109
     19108     19106     19109     19109     19112     19113     19109     19112     19114
     19109     19112     19115     19110     19109     19111     19110     19109     19112
     19111     19109     19112     19112     19115     19116     19112     19115     19117
     19112     19115     19118     19113     19112     19114     19113     19112     19115
     19114     19112     19115     19115     19118     19119     19115     19118     19120
     19115     19118     19121     19116     19115     19117     19116     19115     19118
     19117     19115     19118     19119     19118     19120     19119     19118     19121
     19120     19118     19121     19122     19125     19126     19122     19125     19127
     19122     19125     19128     19123     19122     19124     19123     19122     19125
     19124     19122     19125     19125     19128     19129     19125     19128     19130
     19125     19128     19131     19126     19125     19127     19126     19125     19128
     19127     19125     19128     19128     19131     19132     19128     19131     19133
     19128     19131     19134     19129     19128     19130     19129     19128     19131
     19130     19128     19131     19131     19134     19135     19131     19134     19136
     19131     19134     19137     19132     19131     19133     19132     19131     19134
     19133     19131     19134     19134     19137     19138     19134     19137     19139
     19134     19137     19140     19135     19134     19136     19135     19134     19137
     19136     19134     19137     19137     19140     19141     19137     19140     19142
     19137     19140     19143     19138     19137     19139     19138     19137     19140
     19139     19137     19140     19140     19143     19144     19140     19143     19145
     19140     19143     19146     19141     19140     19142     19141     19140     19143
     19142     19140     19143     19143     19146     19147     19143     19146     19148
     19143     19146     19149     19144     19143     19145     19144     19143     19146
     19145     19143     19146     19146     19149     19150     19146     19149     19151
     19146     19149     19152     19147     19146     19148     19147     19146     19149
     19148     19146     19149     19149     19152     19153     19149     19152     19154
     19149     19152     19155     19150     19149     19151     19150     19149     19152
     19151     19149     19152     19152     19155     19156     19152     19155     19157
     19152     19155     19158     19153     19152     19154     19153     19152     19155
     19154     19152     19155     19155     19158     19159     19155     19158     19160
     19155     19158     19161     19156     19155     19157     19156     19155     19158
     19157     19155     19158     19158     19161     19162     19158     19161     19163
     19158     19161     19164     19159     19158     19160     19159     19158     19161
     19160     19158     19161     19162     19161     19163     19162     19161     19164
     19163     19161     19164     19165     19169     19170     19165     19169     19171
     19165     19169     19172     19166     19165     19167     19166     19165     19168
     19166     19165     19169     19167     19165     19168     19167     19165     19169
     19168     19165     19169     19169     19172     19173     19169     19172     19174
     19169     19172     19179     19170     19169     19171     19170     19169     19172
     19171     19169     19172     19172     19179     19175     19173     19172     19174
     19173     19172     19179     19174     19172     19179     19175     19178     19180
     19176     19175     19177     19176     19175     19178     19176     19175     19179
     19177     19175     19178     19177     19175     19179     19178     19175     19179
     19178     19180     19181     19178     19180     19182     19178     19180     19183
     19180     19183     19184     19180     19183     19185     19180     19183     19191
     19181     19180     19182     19181     19180     19183     19182     19180     19183
     19183     19185     19186     19183     19191     19192     19183     19191     19193
     19183     19191     19194     19184     19183     19185     19184     19183     19191
     19185     19183     19191     19185     19186     19187     19185     19186     19188
     19186     19188     19189     19186     19188     19190     19186     19188     19200
     19187     19186     19188     19188     19200     19201     19188     19200     19202
     19188     19200     19203     19189     19188     19190     19189     19188     19200
     19190     19188     19200     19191     19194     19195     19192     19191     19193
     19192     19191     19194     19193     19191     19194     19194     19195     19196
     19194     19195     19197     19195     19197     19198     19195     19197     19199
     19195     19197     19247     19196     19195     19197     19197     19247     19248
     19197     19247     19249     19197     19247     19250     19198     19197     19199
     19198     19197     19247     19199     19197     19247     19200     19203     19204
     19200     19203     19205     19200     19203     19206     19201     19200     19202
     19201     19200     19203     19202     19200     19203     19203     19206     19207
     19203     19206     19208     19203     19206     19209     19204     19203     19205
     19204     19203     19206     19205     19203     19206     19206     19209     19210
     19206     19209     19211     19206     19209     19212     19207     19206     19208
     19207     19206     19209     19208     19206     19209     19209     19212     19213
     19209     19212     19214     19209     19212     19215     19210     19209     19211
     19210     19209     19212     19211     19209     19212     19212     19215     19216
     19212     19215     19217     19212     19215     19218     19213     19212     19214
     19213     19212     19215     19214     19212     19215     19215     19218     19219
     19215     19218     19220     19216     19215     19217     19216     19215     19218
     19217     19215     19218     19218     19220     19221     19218     19220     19222
     19219     19218     19220     19220     19222     19223     19220     19222     19224
     19220     19222     19225     19221     19220     19222     19222     19225     19226
     19222     19225     19227     19222     19225     19228     19223     19222     19224
     19223     19222     19225     19224     19222     19225     19225     19228     19229
     19225     19228     19230     19225     19228     19231     19226     19225     19227
     19226     19225     19228     19227     19225     19228     19228     19231     19232
     19228     19231     19233     19228     19231     19234     19229     19228     19230
     19229     19228     19231     19230     19228     19231     19231     19234     19235
     19231     19234     19236     19231     19234     19237     19232     19231     19233
     19232     19231     19234     19233     19231     19234     19234     19237     19238
     19234     19237     19239     19234     19237     19240     19235     19234     19236
     19235     19234     19237     19236     19234     19237     19237     19240     19241
     19237     19240     19242     19237     19240     19243     19238     19237     19239
     19238     19237     19240     19239     19237     19240     19240     19243     19244
     19240     19243     19245     19240     19243     19246     19241     19240     19242
     19241     19240     19243     19242     19240     19243     19244     19243     19245
     19244     19243     19246     19245     19243     19246     19247     19250     19251
     19247     19250     19252     19247     19250     19253     19248     19247     19249
     19248     19247     19250     19249     19247     19250     19250     19253     19254
     19250     19253     19255     19250     19253     19256     19251     19250     19252
     19251     19250     19253     19252     19250     19253     19253     19256     19257
     19253     19256     19258     19253     19256     19259     19254     19253     19255
     19254     19253     19256     19255     19253     19256     19256     19259     19260
     19256     19259     19261     19256     19259     19262     19257     19256     19258
     19257     19256     19259     19258     19256     19259     19259     19262     19263
     19259     19262     19264     19259     19262     19265     19260     19259     19261
     19260     19259     19262     19261     19259     19262     19262     19265     19266
     19262     19265     19267     19262     19265     19268     19263     19262     19264
     19263     19262     19265     19264     19262     19265     19265     19268     19269
     19265     19268     19270     19265     19268     19271     19266     19265     19267
     19266     19265     19268     19267     19265     19268     19268     19271     19272
     19268     19271     19273     19268     19271     19274     19269     19268     19270
     19269     19268     19271     19270     19268     19271     19271     19274     19275
     19271     19274     19276     19271     19274     19277     19272     19271     19273
     19272     19271     19274     19273     19271     19274     19274     19277     19278
     19274     19277     19279     19274     19277     19280     19275     19274     19276
     19275     19274     19277     19276     19274     19277     19277     19280     19281
     19277     19280     19282     19277     19280     19283     19278     19277     19279
     19278     19277     19280     19279     19277     19280     19280     19283     19284
     19280     19283     19285     19280     19283     19286     19281     19280     19282
     19281     19280     19283     19282     19280     19283     19283     19286     19287
     19283     19286     19288     19283     19286     19289     19284     19283     19285
     19284     19283     19286     19285     19283     19286     19287     19286     19288
     19287     19286     19289     19288     19286     19289     19290     19294     19295
     19290     19294     19296     19290     19294     19297     19291     19290     19292
     19291     19290     19293     19291     19290     19294     19292     19290     19293
     19292     19290     19294     19293     19290     19294     19294     19297     19298
     19294     19297     19299     19294     19297     19304     19295     19294     19296
     19295     19294     19297     19296     19294     19297     19297     19304     19300
     19298     19297     19299     19298     19297     19304     19299     19297     19304
     19300     19303     19305     19301     19300     19302     19301     19300     19303
     19301     19300     19304     19302     19300     19303     19302     19300     19304
     19303     19300     19304     19303     19305     19306     19303     19305     19307
     19303     19305     19308     19305     19308     19309     19305     19308     19310
     19305     19308     19316     19306     19305     19307     19306     19305     19308
     19307     19305     19308     19308     19310     19311     19308     19316     19317
     19308     19316     19318     19308     19316     19319     19309     19308     19310
     19309     19308     19316     19310     19308     19316     19310     19311     19312
     19310     19311     19313     19311     19313     19314     19311     19313     19315
     19311     19313     19325     19312     19311     19313     19313     19325     19326
     19313     19325     19327     19313     19325     19328     19314     19313     19315
     19314     19313     19325     19315     19313     19325     19316     19319     19320
     19317     19316     19318     19317     19316     19319     19318     19316     19319
     19319     19320     19321     19319     19320     19322     19320     19322     19323
     19320     19322     19324     19320     19322     19369     19321     19320     19322
     19322     19369     19370     19322     19369     19371     19322     19369     19372
     19323     19322     19324     19323     19322     19369     19324     19322     19369
     19325     19328     19329     19325     19328     19330     19325     19328     19331
     19326     19325     19327     19326     19325     19328     19327     19325     19328
     19328     19331     19332     19328     19331     19333     19328     19331     19334
     19329     19328     19330     19329     19328     19331     19330     19328     19331
     19331     19334     19335     19331     19334     19336     19331     19334     19337
     19332     19331     19333     19332     19331     19334     19333     19331     19334
     19334     19337     19338     19334     19337     19339     19334     19337     19340
     19335     19334     19336     19335     19334     19337     19336     19334     19337
     19337     19340     19341     19337     19340     19342     19337     19340     19343
     19338     19337     19339     19338     19337     19340     19339     19337     19340
     19340     19343     19344     19340     19343     19345     19340     19343     19348
     19341     19340     19342     19341     19340     19343     19342     19340     19343
     19343     19345     19346     19343     19345     19347     19343     19345     19348
     19343     19348     19345     19343     19348     19349     19343     19348     19350
     19344     19343     19345     19344     19343     19348     19345     19343     19348
     19345     19348     19349     19345     19348     19350     19346     19345     19347
     19346     19345     19348     19347     19345     19348     19348     19350     19351
     19348     19350     19352     19348     19350     19353     19349     19348     19350
     19350     19353     19354     19350     19353     19355     19350     19353     19356
     19351     19350     19352     19351     19350     19353     19352     19350     19353
     19353     19356     19357     19353     19356     19358     19353     19356     19359
     19354     19353     19355     19354     19353     19356     19355     19353     19356
     19356     19359     19360     19356     19359     19361     19356     19359     19362
     19357     19356     19358     19357     19356     19359     19358     19356     19359
     19359     19362     19363     19359     19362     19364     19359     19362     19365
     19360     19359     19361     19360     19359     19362     19361     19359     19362
     19362     19365     19366     19362     19365     19367     19362     19365     19368
     19363     19362     19364     19363     19362     19365     19364     19362     19365
     19366     19365     19367     19366     19365     19368     19367     19365     19368
     19369     19372     19373     19369     19372     19374     19369     19372     19375
     19370     19369     19371     19370     19369     19372     19371     19369     19372
     19372     19375     19376     19372     19375     19377     19372     19375     19378
     19373     19372     19374     19373     19372     19375     19374     19372     19375
     19375     19378     19379     19375     19378     19380     19375     19378     19381
     19376     19375     19377     19376     19375     19378     19377     19375     19378
     19378     19381     19382     19378     19381     19383     19378     19381     19384
     19379     19378     19380     19379     19378     19381     19380     19378     19381
     19381     19384     19385     19381     19384     19386     19381     19384     19387
     19382     19381     19383     19382     19381     19384     19383     19381     19384
     19384     19387     19388     19384     19387     19389     19384     19387     19390
     19385     19384     19386     19385     19384     19387     19386     19384     19387
     19387     19390     19391     19387     19390     19392     19387     19390     19393
     19388     19387     19389     19388     19387     19390     19389     19387     19390
     19390     19393     19394     19390     19393     19395     19390     19393     19396
     19391     19390     19392     19391     19390     19393     19392     19390     19393
     19393     19396     19397     19393     19396     19398     19393     19396     19399
     19394     19393     19395     19394     19393     19396     19395     19393     19396
     19396     19399     19400     19396     19399     19401     19396     19399     19402
     19397     19396     19398     19397     19396     19399     19398     19396     19399
     19399     19402     19403     19399     19402     19404     19399     19402     19405
     19400     19399     19401     19400     19399     19402     19401     19399     19402
     19402     19405     19406     19402     19405     19407     19402     19405     19408
     19403     19402     19404     19403     19402     19405     19404     19402     19405
     19405     19408     19409     19405     19408     19410     19405     19408     19411
     19406     19405     19407     19406     19405     19408     19407     19405     19408
     19409     19408     19410     19409     19408     19411     19410     19408     19411
     19412     19416     19417     19412     19416     19418     19412     19416     19419
     19413     19412     19414     19413     19412     19415     19413     19412     19416
     19414     19412     19415     19414     19412     19416     19415     19412     19416
     19416     19419     19420     19416     19419     19421     19416     19419     19426
     19417     19416     19418     19417     19416     19419     19418     19416     19419
     19419     19426     19422     19420     19419     19421     19420     19419     19426
     19421     19419     19426     19422     19425     19427     19423     19422     19424
     19423     19422     19425     19423     19422     19426     19424     19422     19425
     19424     19422     19426     19425     19422     19426     19425     19427     19428
     19425     19427     19429     19425     19427     19430     19427     19430     19431
     19427     19430     19432     19427     19430     19438     19428     19427     19429
     19428     19427     19430     19429     19427     19430     19430     19432     19433
     19430     19438     19439     19430     19438     19440     19430     19438     19441
     19431     19430     19432     19431     19430     19438     19432     19430     19438
     19432     19433     19434     19432     19433     19435     19433     19435     19436
     19433     19435     19437     19433     19435     19447     19434     19433     19435
     19435     19447     19448     19435     19447     19449     19435     19447     19450
     19436     19435     19437     19436     19435     19447     19437     19435     19447
     19438     19441     19442     19439     19438     19440     19439     19438     19441
     19440     19438     19441     19441     19442     19443     19441     19442     19444
     19442     19444     19445     19442     19444     19446     19442     19444     19494
     19443     19442     19444     19444     19494     19495     19444     19494     19496
     19444     19494     19497     19445     19444     19446     19445     19444     19494
     19446     19444     19494     19447     19450     19451     19447     19450     19452
     19447     19450     19453     19448     19447     19449     19448     19447     19450
     19449     19447     19450     19450     19453     19454     19450     19453     19455
     19450     19453     19456     19451     19450     19452     19451     19450     19453
     19452     19450     19453     19453     19456     19457     19453     19456     19458
     19453     19456     19459     19454     19453     19455     19454     19453     19456
     19455     19453     19456     19456     19459     19460     19456     19459     19461
     19456     19459     19462     19457     19456     19458     19457     19456     19459
     19458     19456     19459     19459     19462     19463     19459     19462     19464
     19459     19462     19465     19460     19459     19461     19460     19459     19462
     19461     19459     19462     19462     19465     19466     19462     19465     19467
     19463     19462     19464     19463     19462     19465     19464     19462     19465
     19465     19467     19468     19465     19467     19469     19466     19465     19467
     19467     19469     19470     19467     19469     19471     19467     19469     19472
     19468     19467     19469     19469     19472     19473     19469     19472     19474
     19469     19472     19475     19470     19469     19471     19470     19469     19472
     19471     19469     19472     19472     19475     19476     19472     19475     19477
     19472     19475     19478     19473     19472     19474     19473     19472     19475
     19474     19472     19475     19475     19478     19479     19475     19478     19480
     19475     19478     19481     19476     19475     19477     19476     19475     19478
     19477     19475     19478     19478     19481     19482     19478     19481     19483
     19478     19481     19484     19479     19478     19480     19479     19478     19481
     19480     19478     19481     19481     19484     19485     19481     19484     19486
     19481     19484     19487     19482     19481     19483     19482     19481     19484
     19483     19481     19484     19484     19487     19488     19484     19487     19489
     19484     19487     19490     19485     19484     19486     19485     19484     19487
     19486     19484     19487     19487     19490     19491     19487     19490     19492
     19487     19490     19493     19488     19487     19489     19488     19487     19490
     19489     19487     19490     19491     19490     19492     19491     19490     19493
     19492     19490     19493     19494     19497     19498     19494     19497     19499
     19494     19497     19500     19495     19494     19496     19495     19494     19497
     19496     19494     19497     19497     19500     19501     19497     19500     19502
     19497     19500     19503     19498     19497     19499     19498     19497     19500
     19499     19497     19500     19500     19503     19504     19500     19503     19505
     19500     19503     19506     19501     19500     19502     19501     19500     19503
     19502     19500     19503     19503     19506     19507     19503     19506     19508
     19503     19506     19509     19504     19503     19505     19504     19503     19506
     19505     19503     19506     19506     19509     19510     19506     19509     19511
     19506     19509     19512     19507     19506     19508     19507     19506     19509
     19508     19506     19509     19509     19512     19513     19509     19512     19514
     19509     19512     19515     19510     19509     19511     19510     19509     19512
     19511     19509     19512     19512     19515     19516     19512     19515     19517
     19512     19515     19518     19513     19512     19514     19513     19512     19515
     19514     19512     19515     19515     19518     19519     19515     19518     19520
     19515     19518     19521     19516     19515     19517     19516     19515     19518
     19517     19515     19518     19518     19521     19522     19518     19521     19523
     19518     19521     19524     19519     19518     19520     19519     19518     19521
     19520     19518     19521     19521     19524     19525     19521     19524     19526
     19521     19524     19527     19522     19521     19523     19522     19521     19524
     19523     19521     19524     19524     19527     19528     19524     19527     19529
     19524     19527     19530     19525     19524     19526     19525     19524     19527
     19526     19524     19527     19527     19530     19531     19527     19530     19532
     19527     19530     19533     19528     19527     19529     19528     19527     19530
     19529     19527     19530     19530     19533     19534     19530     19533     19535
     19530     19533     19536     19531     19530     19532     19531     19530     19533
     19532     19530     19533     19534     19533     19535     19534     19533     19536
     19535     19533     19536     19537     19541     19542     19537     19541     19543
     19537     19541     19544     19538     19537     19539     19538     19537     19540
     19538     19537     19541     19539     19537     19540     19539     19537     19541
     19540     19537     19541     19541     19544     19545     19541     19544     19546
     19541     19544     19551     19542     19541     19543     19542     19541     19544
     19543     19541     19544     19544     19551     19547     19545     19544     19546
     19545     19544     19551     19546     19544     19551     19547     19550     19552
     19548     19547     19549     19548     19547     19550     19548     19547     19551
     19549     19547     19550     19549     19547     19551     19550     19547     19551
     19550     19552     19553     19550     19552     19554     19550     19552     19555
     19552     19555     19556     19552     19555     19557     19552     19555     19563
     19553     19552     19554     19553     19552     19555     19554     19552     19555
     19555     19557     19558     19555     19563     19564     19555     19563     19565
     19555     19563     19566     19556     19555     19557     19556     19555     19563
     19557     19555     19563     19557     19558     19559     19557     19558     19560
     19558     19560     19561     19558     19560     19562     19558     19560     19572
     19559     19558     19560     19560     19572     19573     19560     19572     19574
     19560     19572     19575     19561     19560     19562     19561     19560     19572
     19562     19560     19572     19563     19566     19567     19564     19563     19565
     19564     19563     19566     19565     19563     19566     19566     19567     19568
     19566     19567     19569     19567     19569     19570     19567     19569     19571
     19567     19569     19616     19568     19567     19569     19569     19616     19617
     19569     19616     19618     19569     19616     19619     19570     19569     19571
     19570     19569     19616     19571     19569     19616     19572     19575     19576
     19572     19575     19577     19572     19575     19578     19573     19572     19574
     19573     19572     19575     19574     19572     19575     19575     19578     19579
     19575     19578     19580     19575     19578     19581     19576     19575     19577
     19576     19575     19578     19577     19575     19578     19578     19581     19582
     19578     19581     19583     19578     19581     19584     19579     19578     19580
     19579     19578     19581     19580     19578     19581     19581     19584     19585
     19581     19584     19586     19581     19584     19587     19582     19581     19583
     19582     19581     19584     19583     19581     19584     19584     19587     19588
     19584     19587     19589     19584     19587     19590     19585     19584     19586
     19585     19584     19587     19586     19584     19587     19587     19590     19591
     19587     19590     19592     19587     19590     19595     19588     19587     19589
     19588     19587     19590     19589     19587     19590     19590     19592     19593
     19590     19592     19594     19590     19592     19595     19590     19595     19592
     19590     19595     19596     19590     19595     19597     19591     19590     19592
     19591     19590     19595     19592     19590     19595     19592     19595     19596
     19592     19595     19597     19593     19592     19594     19593     19592     19595
     19594     19592     19595     19595     19597     19598     19595     19597     19599
     19595     19597     19600     19596     19595     19597     19597     19600     19601
     19597     19600     19602     19597     19600     19603     19598     19597     19599
     19598     19597     19600     19599     19597     19600     19600     19603     19604
     19600     19603     19605     19600     19603     19606     19601     19600     19602
     19601     19600     19603     19602     19600     19603     19603     19606     19607
     19603     19606     19608     19603     19606     19609     19604     19603     19605
     19604     19603     19606     19605     19603     19606     19606     19609     19610
     19606     19609     19611     19606     19609     19612     19607     19606     19608
     19607     19606     19609     19608     19606     19609     19609     19612     19613
     19609     19612     19614     19609     19612     19615     19610     19609     19611
     19610     19609     19612     19611     19609     19612     19613     19612     19614
     19613     19612     19615     19614     19612     19615     19616     19619     19620
     19616     19619     19621     19616     19619     19622     19617     19616     19618
     19617     19616     19619     19618     19616     19619     19619     19622     19623
     19619     19622     19624     19619     19622     19625     19620     19619     19621
     19620     19619     19622     19621     19619     19622     19622     19625     19626
     19622     19625     19627     19622     19625     19628     19623     19622     19624
     19623     19622     19625     19624     19622     19625     19625     19628     19629
     19625     19628     19630     19625     19628     19631     19626     19625     19627
     19626     19625     19628     19627     19625     19628     19628     19631     19632
     19628     19631     19633     19628     19631     19634     19629     19628     19630
     19629     19628     19631     19630     19628     19631     19631     19634     19635
     19631     19634     19636     19631     19634     19637     19632     19631     19633
     19632     19631     19634     19633     19631     19634     19634     19637     19638
     19634     19637     19639     19634     19637     19640     19635     19634     19636
     19635     19634     19637     19636     19634     19637     19637     19640     19641
     19637     19640     19642     19637     19640     19643     19638     19637     19639
     19638     19637     19640     19639     19637     19640     19640     19643     19644
     19640     19643     19645     19640     19643     19646     19641     19640     19642
     19641     19640     19643     19642     19640     19643     19643     19646     19647
     19643     19646     19648     19643     19646     19649     19644     19643     19645
     19644     19643     19646     19645     19643     19646     19646     19649     19650
     19646     19649     19651     19646     19649     19652     19647     19646     19648
     19647     19646     19649     19648     19646     19649     19649     19652     19653
     19649     19652     19654     19649     19652     19655     19650     19649     19651
     19650     19649     19652     19651     19649     19652     19652     19655     19656
     19652     19655     19657     19652     19655     19658     19653     19652     19654
     19653     19652     19655     19654     19652     19655     19656     19655     19657
     19656     19655     19658     19657     19655     19658     19659     19663     19664
     19659     19663     19665     19659     19663     19666     19660     19659     19661
     19660     19659     19662     19660     19659     19663     19661     19659     19662
     19661     19659     19663     19662     19659     19663     19663     19666     19667
     19663     19666     19668     19663     19666     19673     19664     19663     19665
     19664     19663     19666     19665     19663     19666     19666     19673     19669
     19667     19666     19668     19667     19666     19673     19668     19666     19673
     19669     19672     19674     19670     19669     19671     19670     19669     19672
     19670     19669     19673     19671     19669     19672     19671     19669     19673
     19672     19669     19673     19672     19674     19675     19672     19674     19676
     19672     19674     19677     19674     19677     19678     19674     19677     19679
     19674     19677     19685     19675     19674     19676     19675     19674     19677
     19676     19674     19677     19677     19679     19680     19677     19685     19686
     19677     19685     19687     19677     19685     19688     19678     19677     19679
     19678     19677     19685     19679     19677     19685     19679     19680     19681
     19679     19680     19682     19680     19682     19683     19680     19682     19684
     19680     19682     19694     19681     19680     19682     19682     19694     19695
     19682     19694     19696     19682     19694     19697     19683     19682     19684
     19683     19682     19694     19684     19682     19694     19685     19688     19689
     19686     19685     19687     19686     19685     19688     19687     19685     19688
     19688     19689     19690     19688     19689     19691     19689     19691     19692
     19689     19691     19693     19689     19691     19738     19690     19689     19691
     19691     19738     19739     19691     19738     19740     19691     19738     19741
     19692     19691     19693     19692     19691     19738     19693     19691     19738
     19694     19697     19698     19694     19697     19699     19694     19697     19700
     19695     19694     19696     19695     19694     19697     19696     19694     19697
     19697     19700     19701     19697     19700     19702     19697     19700     19703
     19698     19697     19699     19698     19697     19700     19699     19697     19700
     19700     19703     19704     19700     19703     19705     19700     19703     19706
     19701     19700     19702     19701     19700     19703     19702     19700     19703
     19703     19706     19707     19703     19706     19708     19703     19706     19709
     19704     19703     19705     19704     19703     19706     19705     19703     19706
     19706     19709     19710     19706     19709     19711     19706     19709     19712
     19707     19706     19708     19707     19706     19709     19708     19706     19709
     19709     19712     19713     19709     19712     19714     19709     19712     19717
     19710     19709     19711     19710     19709     19712     19711     19709     19712
     19712     19714     19715     19712     19714     19716     19712     19714     19717
     19712     19717     19714     19712     19717     19718     19712     19717     19719
     19713     19712     19714     19713     19712     19717     19714     19712     19717
     19714     19717     19718     19714     19717     19719     19715     19714     19716
     19715     19714     19717     19716     19714     19717     19717     19719     19720
     19717     19719     19721     19717     19719     19722     19718     19717     19719
     19719     19722     19723     19719     19722     19724     19719     19722     19725
     19720     19719     19721     19720     19719     19722     19721     19719     19722
     19722     19725     19726     19722     19725     19727     19722     19725     19728
     19723     19722     19724     19723     19722     19725     19724     19722     19725
     19725     19728     19729     19725     19728     19730     19725     19728     19731
     19726     19725     19727     19726     19725     19728     19727     19725     19728
     19728     19731     19732     19728     19731     19733     19728     19731     19734
     19729     19728     19730     19729     19728     19731     19730     19728     19731
     19731     19734     19735     19731     19734     19736     19731     19734     19737
     19732     19731     19733     19732     19731     19734     19733     19731     19734
     19735     19734     19736     19735     19734     19737     19736     19734     19737
     19738     19741     19742     19738     19741     19743     19738     19741     19744
     19739     19738     19740     19739     19738     19741     19740     19738     19741
     19741     19744     19745     19741     19744     19746     19741     19744     19747
     19742     19741     19743     19742     19741     19744     19743     19741     19744
     19744     19747     19748     19744     19747     19749     19744     19747     19750
     19745     19744     19746     19745     19744     19747     19746     19744     19747
     19747     19750     19751     19747     19750     19752     19747     19750     19753
     19748     19747     19749     19748     19747     19750     19749     19747     19750
     19750     19753     19754     19750     19753     19755     19750     19753     19756
     19751     19750     19752     19751     19750     19753     19752     19750     19753
     19753     19756     19757     19753     19756     19758     19753     19756     19759
     19754     19753     19755     19754     19753     19756     19755     19753     19756
     19756     19759     19760     19756     19759     19761     19756     19759     19762
     19757     19756     19758     19757     19756     19759     19758     19756     19759
     19759     19762     19763     19759     19762     19764     19759     19762     19765
     19760     19759     19761     19760     19759     19762     19761     19759     19762
     19762     19765     19766     19762     19765     19767     19762     19765     19768
     19763     19762     19764     19763     19762     19765     19764     19762     19765
     19765     19768     19769     19765     19768     19770     19765     19768     19771
     19766     19765     19767     19766     19765     19768     19767     19765     19768
     19768     19771     19772     19768     19771     19773     19768     19771     19774
     19769     19768     19770     19769     19768     19771     19770     19768     19771
     19771     19774     19775     19771     19774     19776     19771     19774     19777
     19772     19771     19773     19772     19771     19774     19773     19771     19774
     19775     19774     19776     19775     19774     19777     19776     19774     19777
     19778     19782     19783     19778     19782     19784     19778     19782     19785
     19779     19778     19780     19779     19778     19781     19779     19778     19782
     19780     19778     19781     19780     19778     19782     19781     19778     19782
     19782     19785     19786     19782     19785     19787     19782     19785     19792
     19783     19782     19784     19783     19782     19785     19784     19782     19785
     19785     19792     19788     19786     19785     19787     19786     19785     19792
     19787     19785     19792     19788     19791     19793     19789     19788     19790
     19789     19788     19791     19789     19788     19792     19790     19788     19791
     19790     19788     19792     19791     19788     19792     19791     19793     19794
     19791     19793     19795     19791     19793     19796     19793     19796     19797
     19793     19796     19798     19793     19796     19804     19794     19793     19795
     19794     19793     19796     19795     19793     19796     19796     19798     19799
     19796     19804     19805     19796     19804     19806     19796     19804     19807
     19797     19796     19798     19797     19796     19804     19798     19796     19804
     19798     19799     19800     19798     19799     19801     19799     19801     19802
     19799     19801     19803     19799     19801     19813     19800     19799     19801
     19801     19813     19814     19801     19813     19815     19801     19813     19816
     19802     19801     19803     19802     19801     19813     19803     19801     19813
     19804     19807     19808     19805     19804     19806     19805     19804     19807
     19806     19804     19807     19807     19808     19809     19807     19808     19810
     19808     19810     19811     19808     19810     19812     19808     19810     19857
     19809     19808     19810     19810     19857     19858     19810     19857     19859
     19810     19857     19860     19811     19810     19812     19811     19810     19857
     19812     19810     19857     19813     19816     19817     19813     19816     19818
     19813     19816     19819     19814     19813     19815     19814     19813     19816
     19815     19813     19816     19816     19819     19820     19816     19819     19821
     19816     19819     19822     19817     19816     19818     19817     19816     19819
     19818     19816     19819     19819     19822     19823     19819     19822     19824
     19819     19822     19825     19820     19819     19821     19820     19819     19822
     19821     19819     19822     19822     19825     19826     19822     19825     19827
     19822     19825     19828     19823     19822     19824     19823     19822     19825
     19824     19822     19825     19825     19828     19829     19825     19828     19830
     19825     19828     19831     19826     19825     19827     19826     19825     19828
     19827     19825     19828     19828     19831     19832     19828     19831     19833
     19828     19831     19836     19829     19828     19830     19829     19828     19831
     19830     19828     19831     19831     19833     19834     19831     19833     19835
     19831     19833     19836     19831     19836     19833     19831     19836     19837
     19831     19836     19838     19832     19831     19833     19832     19831     19836
     19833     19831     19836     19833     19836     19837     19833     19836     19838
     19834     19833     19835     19834     19833     19836     19835     19833     19836
     19836     19838     19839     19836     19838     19840     19836     19838     19841
     19837     19836     19838     19838     19841     19842     19838     19841     19843
     19838     19841     19844     19839     19838     19840     19839     19838     19841
     19840     19838     19841     19841     19844     19845     19841     19844     19846
     19841     19844     19847     19842     19841     19843     19842     19841     19844
     19843     19841     19844     19844     19847     19848     19844     19847     19849
     19844     19847     19850     19845     19844     19846     19845     19844     19847
     19846     19844     19847     19847     19850     19851     19847     19850     19852
     19847     19850     19853     19848     19847     19849     19848     19847     19850
     19849     19847     19850     19850     19853     19854     19850     19853     19855
     19850     19853     19856     19851     19850     19852     19851     19850     19853
     19852     19850     19853     19854     19853     19855     19854     19853     19856
     19855     19853     19856     19857     19860     19861     19857     19860     19862
     19857     19860     19863     19858     19857     19859     19858     19857     19860
     19859     19857     19860     19860     19863     19864     19860     19863     19865
     19860     19863     19866     19861     19860     19862     19861     19860     19863
     19862     19860     19863     19863     19866     19867     19863     19866     19868
     19863     19866     19869     19864     19863     19865     19864     19863     19866
     19865     19863     19866     19866     19869     19870     19866     19869     19871
     19866     19869     19872     19867     19866     19868     19867     19866     19869
     19868     19866     19869     19869     19872     19873     19869     19872     19874
     19869     19872     19875     19870     19869     19871     19870     19869     19872
     19871     19869     19872     19872     19875     19876     19872     19875     19877
     19872     19875     19878     19873     19872     19874     19873     19872     19875
     19874     19872     19875     19875     19878     19879     19875     19878     19880
     19875     19878     19881     19876     19875     19877     19876     19875     19878
     19877     19875     19878     19878     19881     19882     19878     19881     19883
     19878     19881     19884     19879     19878     19880     19879     19878     19881
     19880     19878     19881     19881     19884     19885     19881     19884     19886
     19881     19884     19887     19882     19881     19883     19882     19881     19884
     19883     19881     19884     19884     19887     19888     19884     19887     19889
     19884     19887     19890     19885     19884     19886     19885     19884     19887
     19886     19884     19887     19887     19890     19891     19887     19890     19892
     19887     19890     19893     19888     19887     19889     19888     19887     19890
     19889     19887     19890     19890     19893     19894     19890     19893     19895
     19890     19893     19896     19891     19890     19892     19891     19890     19893
     19892     19890     19893     19893     19896     19897     19893     19896     19898
     19893     19896     19899     19894     19893     19895     19894     19893     19896
     19895     19893     19896     19897     19896     19898     19897     19896     19899
     19898     19896     19899     19900     19904     19905     19900     19904     19906
     19900     19904     19907     19901     19900     19902     19901     19900     19903
     19901     19900     19904     19902     19900     19903     19902     19900     19904
     19903     19900     19904     19904     19907     19908     19904     19907     19909
     19904     19907     19914     19905     19904     19906     19905     19904     19907
     19906     19904     19907     19907     19914     19910     19908     19907     19909
     19908     19907     19914     19909     19907     19914     19910     19913     19915
     19911     19910     19912     19911     19910     19913     19911     19910     19914
     19912     19910     19913     19912     19910     19914     19913     19910     19914
     19913     19915     19916     19913     19915     19917     19913     19915     19918
     19915     19918     19919     19915     19918     19920     19915     19918     19926
     19916     19915     19917     19916     19915     19918     19917     19915     19918
     19918     19920     19921     19918     19926     19927     19918     19926     19928
     19918     19926     19929     19919     19918     19920     19919     19918     19926
     19920     19918     19926     19920     19921     19922     19920     19921     19923
     19921     19923     19924     19921     19923     19925     19921     19923     19935
     19922     19921     19923     19923     19935     19936     19923     19935     19937
     19923     19935     19938     19924     19923     19925     19924     19923     19935
     19925     19923     19935     19926     19929     19930     19927     19926     19928
     19927     19926     19929     19928     19926     19929     19929     19930     19931
     19929     19930     19932     19930     19932     19933     19930     19932     19934
     19930     19932     19979     19931     19930     19932     19932     19979     19980
     19932     19979     19981     19932     19979     19982     19933     19932     19934
     19933     19932     19979     19934     19932     19979     19935     19938     19939
     19935     19938     19940     19935     19938     19941     19936     19935     19937
     19936     19935     19938     19937     19935     19938     19938     19941     19942
     19938     19941     19943     19938     19941     19944     19939     19938     19940
     19939     19938     19941     19940     19938     19941     19941     19944     19945
     19941     19944     19946     19941     19944     19947     19942     19941     19943
     19942     19941     19944     19943     19941     19944     19944     19947     19948
     19944     19947     19949     19944     19947     19950     19945     19944     19946
     19945     19944     19947     19946     19944     19947     19947     19950     19951
     19947     19950     19952     19947     19950     19953     19948     19947     19949
     19948     19947     19950     19949     19947     19950     19950     19953     19954
     19950     19953     19955     19950     19953     19958     19951     19950     19952
     19951     19950     19953     19952     19950     19953     19953     19955     19956
     19953     19955     19957     19953     19955     19958     19953     19958     19955
     19953     19958     19959     19953     19958     19960     19954     19953     19955
     19954     19953     19958     19955     19953     19958     19955     19958     19959
     19955     19958     19960     19956     19955     19957     19956     19955     19958
     19957     19955     19958     19958     19960     19961     19958     19960     19962
     19958     19960     19963     19959     19958     19960     19960     19963     19964
     19960     19963     19965     19960     19963     19966     19961     19960     19962
     19961     19960     19963     19962     19960     19963     19963     19966     19967
     19963     19966     19968     19963     19966     19969     19964     19963     19965
     19964     19963     19966     19965     19963     19966     19966     19969     19970
     19966     19969     19971     19966     19969     19972     19967     19966     19968
     19967     19966     19969     19968     19966     19969     19969     19972     19973
     19969     19972     19974     19969     19972     19975     19970     19969     19971
     19970     19969     19972     19971     19969     19972     19972     19975     19976
     19972     19975     19977     19972     19975     19978     19973     19972     19974
     19973     19972     19975     19974     19972     19975     19976     19975     19977
     19976     19975     19978     19977     19975     19978     19979     19982     19983
     19979     19982     19984     19979     19982     19985     19980     19979     19981
     19980     19979     19982     19981     19979     19982     19982     19985     19986
     19982     19985     19987     19982     19985     19988     19983     19982     19984
     19983     19982     19985     19984     19982     19985     19985     19988     19989
     19985     19988     19990     19985     19988     19991     19986     19985     19987
     19986     19985     19988     19987     19985     19988     19988     19991     19992
     19988     19991     19993     19988     19991     19994     19989     19988     19990
     19989     19988     19991     19990     19988     19991     19991     19994     19995
     19991     19994     19996     19991     19994     19997     19992     19991     19993
     19992     19991     19994     19993     19991     19994     19994     19997     19998
     19994     19997     19999     19994     19997     20000     19995     19994     19996
     19995     19994     19997     19996     19994     19997     19997     20000     20001
     19997     20000     20002     19997     20000     20003     19998     19997     19999
     19998     19997     20000     19999     19997     20000     20000     20003     20004
     20000     20003     20005     20000     20003     20006     20001     20000     20002
     20001     20000     20003     20002     20000     20003     20003     20006     20007
     20003     20006     20008     20003     20006     20009     20004     20003     20005
     20004     20003     20006     20005     20003     20006     20006     20009     20010
     20006     20009     20011     20006     20009     20012     20007     20006     20008
     20007     20006     20009     20008     20006     20009     20009     20012     20013
     20009     20012     20014     20009     20012     20015     20010     20009     20011
     20010     20009     20012     20011     20009     20012     20012     20015     20016
     20012     20015     20017     20012     20015     20018     20013     20012     20014
     20013     20012     20015     20014     20012     20015     20015     20018     20019
     20015     20018     20020     20015     20018     20021     20016     20015     20017
     20016     20015     20018     20017     20015     20018     20019     20018     20020
     20019     20018     20021     20020     20018     20021     20022     20026     20027
     20022     20026     20028     20022     20026     20029     20023     20022     20024
     20023     20022     20025     20023     20022     20026     20024     20022     20025
     20024     20022     20026     20025     20022     20026     20026     20029     20030
     20026     20029     20031     20026     20029     20036     20027     20026     20028
     20027     20026     20029     20028     20026     20029     20029     20036     20032
     20030     20029     20031     20030     20029     20036     20031     20029     20036
     20032     20035     20037     20033     20032     20034     20033     20032     20035
     20033     20032     20036     20034     20032     20035     20034     20032     20036
     20035     20032     20036     20035     20037     20038     20035     20037     20039
     20035     20037     20040     20037     20040     20041     20037     20040     20042
     20037     20040     20048     20038     20037     20039     20038     20037     20040
     20039     20037     20040     20040     20042     20043     20040     20048     20049
     20040     20048     20050     20040     20048     20051     20041     20040     20042
     20041     20040     20048     20042     20040     20048     20042     20043     20044
     20042     20043     20045     20043     20045     20046     20043     20045     20047
     20043     20045     20057     20044     20043     20045     20045     20057     20058
     20045     20057     20059     20045     20057     20060     20046     20045     20047
     20046     20045     20057     20047     20045     20057     20048     20051     20052
     20049     20048     20050     20049     20048     20051     20050     20048     20051
     20051     20052     20053     20051     20052     20054     20052     20054     20055
     20052     20054     20056     20052     20054     20101     20053     20052     20054
     20054     20101     20102     20054     20101     20103     20054     20101     20104
     20055     20054     20056     20055     20054     20101     20056     20054     20101
     20057     20060     20061     20057     20060     20062     20057     20060     20063
     20058     20057     20059     20058     20057     20060     20059     20057     20060
     20060     20063     20064     20060     20063     20065     20060     20063     20066
     20061     20060     20062     20061     20060     20063     20062     20060     20063
     20063     20066     20067     20063     20066     20068     20063     20066     20069
     20064     20063     20065     20064     20063     20066     20065     20063     20066
     20066     20069     20070     20066     20069     20071     20066     20069     20072
     20067     20066     20068     20067     20066     20069     20068     20066     20069
     20069     20072     20073     20069     20072     20074     20069     20072     20075
     20070     20069     20071     20070     20069     20072     20071     20069     20072
     20072     20075     20076     20072     20075     20077     20072     20075     20080
     20073     20072     20074     20073     20072     20075     20074     20072     20075
     20075     20077     20078     20075     20077     20079     20075     20077     20080
     20075     20080     20077     20075     20080     20081     20075     20080     20082
     20076     20075     20077     20076     20075     20080     20077     20075     20080
     20077     20080     20081     20077     20080     20082     20078     20077     20079
     20078     20077     20080     20079     20077     20080     20080     20082     20083
     20080     20082     20084     20080     20082     20085     20081     20080     20082
     20082     20085     20086     20082     20085     20087     20082     20085     20088
     20083     20082     20084     20083     20082     20085     20084     20082     20085
     20085     20088     20089     20085     20088     20090     20085     20088     20091
     20086     20085     20087     20086     20085     20088     20087     20085     20088
     20088     20091     20092     20088     20091     20093     20088     20091     20094
     20089     20088     20090     20089     20088     20091     20090     20088     20091
     20091     20094     20095     20091     20094     20096     20091     20094     20097
     20092     20091     20093     20092     20091     20094     20093     20091     20094
     20094     20097     20098     20094     20097     20099     20094     20097     20100
     20095     20094     20096     20095     20094     20097     20096     20094     20097
     20098     20097     20099     20098     20097     20100     20099     20097     20100
     20101     20104     20105     20101     20104     20106     20101     20104     20107
     20102     20101     20103     20102     20101     20104     20103     20101     20104
     20104     20107     20108     20104     20107     20109     20104     20107     20110
     20105     20104     20106     20105     20104     20107     20106     20104     20107
     20107     20110     20111     20107     20110     20112     20107     20110     20113
     20108     20107     20109     20108     20107     20110     20109     20107     20110
     20110     20113     20114     20110     20113     20115     20110     20113     20116
     20111     20110     20112     20111     20110     20113     20112     20110     20113
     20113     20116     20117     20113     20116     20118     20113     20116     20119
     20114     20113     20115     20114     20113     20116     20115     20113     20116
     20116     20119     20120     20116     20119     20121     20116     20119     20122
     20117     20116     20118     20117     20116     20119     20118     20116     20119
     20119     20122     20123     20119     20122     20124     20119     20122     20125
     20120     20119     20121     20120     20119     20122     20121     20119     20122
     20122     20125     20126     20122     20125     20127     20122     20125     20128
     20123     20122     20124     20123     20122     20125     20124     20122     20125
     20125     20128     20129     20125     20128     20130     20125     20128     20131
     20126     20125     20127     20126     20125     20128     20127     20125     20128
     20128     20131     20132     20128     20131     20133     20128     20131     20134
     20129     20128     20130     20129     20128     20131     20130     20128     20131
     20131     20134     20135     20131     20134     20136     20131     20134     20137
     20132     20131     20133     20132     20131     20134     20133     20131     20134
     20134     20137     20138     20134     20137     20139     20134     20137     20140
     20135     20134     20136     20135     20134     20137     20136     20134     20137
     20137     20140     20141     20137     20140     20142     20137     20140     20143
     20138     20137     20139     20138     20137     20140     20139     20137     20140
     20141     20140     20142     20141     20140     20143     20142     20140     20143
     20144     20148     20149     20144     20148     20150     20144     20148     20151
     20145     20144     20146     20145     20144     20147     20145     20144     20148
     20146     20144     20147     20146     20144     20148     20147     20144     20148
     20148     20151     20152     20148     20151     20153     20148     20151     20158
     20149     20148     20150     20149     20148     20151     20150     20148     20151
     20151     20158     20154     20152     20151     20153     20152     20151     20158
     20153     20151     20158     20154     20157     20159     20155     20154     20156
     20155     20154     20157     20155     20154     20158     20156     20154     20157
     20156     20154     20158     20157     20154     20158     20157     20159     20160
     20157     20159     20161     20157     20159     20162     20159     20162     20163
     20159     20162     20164     20159     20162     20170     20160     20159     20161
     20160     20159     20162     20161     20159     20162     20162     20164     20165
     20162     20170     20171     20162     20170     20172     20162     20170     20173
     20163     20162     20164     20163     20162     20170     20164     20162     20170
     20164     20165     20166     20164     20165     20167     20165     20167     20168
     20165     20167     20169     20165     20167     20179     20166     20165     20167
     20167     20179     20180     20167     20179     20181     20167     20179     20182
     20168     20167     20169     20168     20167     20179     20169     20167     20179
     20170     20173     20174     20171     20170     20172     20171     20170     20173
     20172     20170     20173     20173     20174     20175     20173     20174     20176
     20174     20176     20177     20174     20176     20178     20174     20176     20220
     20175     20174     20176     20176     20220     20221     20176     20220     20222
     20176     20220     20223     20177     20176     20178     20177     20176     20220
     20178     20176     20220     20179     20182     20183     20179     20182     20184
     20179     20182     20185     20180     20179     20181     20180     20179     20182
     20181     20179     20182     20182     20185     20186     20182     20185     20187
     20182     20185     20188     20183     20182     20184     20183     20182     20185
     20184     20182     20185     20185     20188     20189     20185     20188     20190
     20185     20188     20191     20186     20185     20187     20186     20185     20188
     20187     20185     20188     20188     20191     20192     20188     20191     20193
     20188     20191     20194     20189     20188     20190     20189     20188     20191
     20190     20188     20191     20191     20194     20195     20191     20194     20196
     20191     20194     20197     20192     20191     20193     20192     20191     20194
     20193     20191     20194     20194     20197     20198     20194     20197     20199
     20195     20194     20196     20195     20194     20197     20196     20194     20197
     20197     20199     20200     20197     20199     20201     20198     20197     20199
     20199     20201     20202     20199     20201     20203     20199     20201     20204
     20200     20199     20201     20201     20204     20205     20201     20204     20206
     20201     20204     20207     20202     20201     20203     20202     20201     20204
     20203     20201     20204     20204     20207     20208     20204     20207     20209
     20204     20207     20210     20205     20204     20206     20205     20204     20207
     20206     20204     20207     20207     20210     20211     20207     20210     20212
     20207     20210     20213     20208     20207     20209     20208     20207     20210
     20209     20207     20210     20210     20213     20214     20210     20213     20215
     20210     20213     20216     20211     20210     20212     20211     20210     20213
     20212     20210     20213     20213     20216     20217     20213     20216     20218
     20213     20216     20219     20214     20213     20215     20214     20213     20216
     20215     20213     20216     20217     20216     20218     20217     20216     20219
     20218     20216     20219     20220     20223     20224     20220     20223     20225
     20220     20223     20226     20221     20220     20222     20221     20220     20223
     20222     20220     20223     20223     20226     20227     20223     20226     20228
     20223     20226     20229     20224     20223     20225     20224     20223     20226
     20225     20223     20226     20226     20229     20230     20226     20229     20231
     20226     20229     20232     20227     20226     20228     20227     20226     20229
     20228     20226     20229     20229     20232     20233     20229     20232     20234
     20229     20232     20235     20230     20229     20231     20230     20229     20232
     20231     20229     20232     20232     20235     20236     20232     20235     20237
     20232     20235     20238     20233     20232     20234     20233     20232     20235
     20234     20232     20235     20235     20238     20239     20235     20238     20240
     20236     20235     20237     20236     20235     20238     20237     20235     20238
     20238     20240     20241     20238     20240     20242     20239     20238     20240
     20240     20242     20243     20240     20242     20244     20240     20242     20245
     20241     20240     20242     20242     20245     20246     20242     20245     20247
     20242     20245     20248     20243     20242     20244     20243     20242     20245
     20244     20242     20245     20245     20248     20249     20245     20248     20250
     20245     20248     20251     20246     20245     20247     20246     20245     20248
     20247     20245     20248     20248     20251     20252     20248     20251     20253
     20248     20251     20254     20249     20248     20250     20249     20248     20251
     20250     20248     20251     20251     20254     20255     20251     20254     20256
     20251     20254     20257     20252     20251     20253     20252     20251     20254
     20253     20251     20254     20254     20257     20258     20254     20257     20259
     20254     20257     20260     20255     20254     20256     20255     20254     20257
     20256     20254     20257     20257     20260     20261     20257     20260     20262
     20257     20260     20263     20258     20257     20259     20258     20257     20260
     20259     20257     20260     20260     20263     20264     20260     20263     20265
     20260     20263     20266     20261     20260     20262     20261     20260     20263
     20262     20260     20263     20264     20263     20265     20264     20263     20266
     20265     20263     20266     20267     20271     20272     20267     20271     20273
     20267     20271     20274     20268     20267     20269     20268     20267     20270
     20268     20267     20271     20269     20267     20270     20269     20267     20271
     20270     20267     20271     20271     20274     20275     20271     20274     20276
     20271     20274     20281     20272     20271     20273     20272     20271     20274
     20273     20271     20274     20274     20281     20277     20275     20274     20276
     20275     20274     20281     20276     20274     20281     20277     20280     20282
     20278     20277     20279     20278     20277     20280     20278     20277     20281
     20279     20277     20280     20279     20277     20281     20280     20277     20281
     20280     20282     20283     20280     20282     20284     20280     20282     20285
     20282     20285     20286     20282     20285     20287     20282     20285     20293
     20283     20282     20284     20283     20282     20285     20284     20282     20285
     20285     20287     20288     20285     20293     20294     20285     20293     20295
     20285     20293     20296     20286     20285     20287     20286     20285     20293
     20287     20285     20293     20287     20288     20289     20287     20288     20290
     20288     20290     20291     20288     20290     20292     20288     20290     20302
     20289     20288     20290     20290     20302     20303     20290     20302     20304
     20290     20302     20305     20291     20290     20292     20291     20290     20302
     20292     20290     20302     20293     20296     20297     20294     20293     20295
     20294     20293     20296     20295     20293     20296     20296     20297     20298
     20296     20297     20299     20297     20299     20300     20297     20299     20301
     20297     20299     20346     20298     20297     20299     20299     20346     20347
     20299     20346     20348     20299     20346     20349     20300     20299     20301
     20300     20299     20346     20301     20299     20346     20302     20305     20306
     20302     20305     20307     20302     20305     20308     20303     20302     20304
     20303     20302     20305     20304     20302     20305     20305     20308     20309
     20305     20308     20310     20305     20308     20311     20306     20305     20307
     20306     20305     20308     20307     20305     20308     20308     20311     20312
     20308     20311     20313     20308     20311     20314     20309     20308     20310
     20309     20308     20311     20310     20308     20311     20311     20314     20315
     20311     20314     20316     20311     20314     20317     20312     20311     20313
     20312     20311     20314     20313     20311     20314     20314     20317     20318
     20314     20317     20319     20314     20317     20320     20315     20314     20316
     20315     20314     20317     20316     20314     20317     20317     20320     20321
     20317     20320     20322     20317     20320     20325     20318     20317     20319
     20318     20317     20320     20319     20317     20320     20320     20322     20323
     20320     20322     20324     20320     20322     20325     20320     20325     20322
     20320     20325     20326     20320     20325     20327     20321     20320     20322
     20321     20320     20325     20322     20320     20325     20322     20325     20326
     20322     20325     20327     20323     20322     20324     20323     20322     20325
     20324     20322     20325     20325     20327     20328     20325     20327     20329
     20325     20327     20330     20326     20325     20327     20327     20330     20331
     20327     20330     20332     20327     20330     20333     20328     20327     20329
     20328     20327     20330     20329     20327     20330     20330     20333     20334
     20330     20333     20335     20330     20333     20336     20331     20330     20332
     20331     20330     20333     20332     20330     20333     20333     20336     20337
     20333     20336     20338     20333     20336     20339     20334     20333     20335
     20334     20333     20336     20335     20333     20336     20336     20339     20340
     20336     20339     20341     20336     20339     20342     20337     20336     20338
     20337     20336     20339     20338     20336     20339     20339     20342     20343
     20339     20342     20344     20339     20342     20345     20340     20339     20341
     20340     20339     20342     20341     20339     20342     20343     20342     20344
     20343     20342     20345     20344     20342     20345     20346     20349     20350
     20346     20349     20351     20346     20349     20352     20347     20346     20348
     20347     20346     20349     20348     20346     20349     20349     20352     20353
     20349     20352     20354     20349     20352     20355     20350     20349     20351
     20350     20349     20352     20351     20349     20352     20352     20355     20356
     20352     20355     20357     20352     20355     20358     20353     20352     20354
     20353     20352     20355     20354     20352     20355     20355     20358     20359
     20355     20358     20360     20355     20358     20361     20356     20355     20357
     20356     20355     20358     20357     20355     20358     20358     20361     20362
     20358     20361     20363     20358     20361     20364     20359     20358     20360
     20359     20358     20361     20360     20358     20361     20361     20364     20365
     20361     20364     20366     20361     20364     20367     20362     20361     20363
     20362     20361     20364     20363     20361     20364     20364     20367     20368
     20364     20367     20369     20364     20367     20370     20365     20364     20366
     20365     20364     20367     20366     20364     20367     20367     20370     20371
     20367     20370     20372     20367     20370     20373     20368     20367     20369
     20368     20367     20370     20369     20367     20370     20370     20373     20374
     20370     20373     20375     20370     20373     20376     20371     20370     20372
     20371     20370     20373     20372     20370     20373     20373     20376     20377
     20373     20376     20378     20373     20376     20379     20374     20373     20375
     20374     20373     20376     20375     20373     20376     20376     20379     20380
     20376     20379     20381     20376     20379     20382     20377     20376     20378
     20377     20376     20379     20378     20376     20379     20379     20382     20383
     20379     20382     20384     20379     20382     20385     20380     20379     20381
     20380     20379     20382     20381     20379     20382     20382     20385     20386
     20382     20385     20387     20382     20385     20388     20383     20382     20384
     20383     20382     20385     20384     20382     20385     20386     20385     20387
     20386     20385     20388     20387     20385     20388     20389     20393     20394
     20389     20393     20395     20389     20393     20396     20390     20389     20391
     20390     20389     20392     20390     20389     20393     20391     20389     20392
     20391     20389     20393     20392     20389     20393     20393     20396     20397
     20393     20396     20398     20393     20396     20403     20394     20393     20395
     20394     20393     20396     20395     20393     20396     20396     20403     20399
     20397     20396     20398     20397     20396     20403     20398     20396     20403
     20399     20402     20404     20400     20399     20401     20400     20399     20402
     20400     20399     20403     20401     20399     20402     20401     20399     20403
     20402     20399     20403     20402     20404     20405     20402     20404     20406
     20402     20404     20407     20404     20407     20408     20404     20407     20409
     20404     20407     20415     20405     20404     20406     20405     20404     20407
     20406     20404     20407     20407     20409     20410     20407     20415     20416
     20407     20415     20417     20407     20415     20418     20408     20407     20409
     20408     20407     20415     20409     20407     20415     20409     20410     20411
     20409     20410     20412     20410     20412     20413     20410     20412     20414
     20410     20412     20424     20411     20410     20412     20412     20424     20425
     20412     20424     20426     20412     20424     20427     20413     20412     20414
     20413     20412     20424     20414     20412     20424     20415     20418     20419
     20416     20415     20417     20416     20415     20418     20417     20415     20418
     20418     20419     20420     20418     20419     20421     20419     20421     20422
     20419     20421     20423     20419     20421     20468     20420     20419     20421
     20421     20468     20469     20421     20468     20470     20421     20468     20471
     20422     20421     20423     20422     20421     20468     20423     20421     20468
     20424     20427     20428     20424     20427     20429     20424     20427     20430
     20425     20424     20426     20425     20424     20427     20426     20424     20427
     20427     20430     20431     20427     20430     20432     20427     20430     20433
     20428     20427     20429     20428     20427     20430     20429     20427     20430
     20430     20433     20434     20430     20433     20435     20430     20433     20436
     20431     20430     20432     20431     20430     20433     20432     20430     20433
     20433     20436     20437     20433     20436     20438     20433     20436     20439
     20434     20433     20435     20434     20433     20436     20435     20433     20436
     20436     20439     20440     20436     20439     20441     20436     20439     20442
     20437     20436     20438     20437     20436     20439     20438     20436     20439
     20439     20442     20443     20439     20442     20444     20439     20442     20447
     20440     20439     20441     20440     20439     20442     20441     20439     20442
     20442     20444     20445     20442     20444     20446     20442     20444     20447
     20442     20447     20444     20442     20447     20448     20442     20447     20449
     20443     20442     20444     20443     20442     20447     20444     20442     20447
     20444     20447     20448     20444     20447     20449     20445     20444     20446
     20445     20444     20447     20446     20444     20447     20447     20449     20450
     20447     20449     20451     20447     20449     20452     20448     20447     20449
     20449     20452     20453     20449     20452     20454     20449     20452     20455
     20450     20449     20451     20450     20449     20452     20451     20449     20452
     20452     20455     20456     20452     20455     20457     20452     20455     20458
     20453     20452     20454     20453     20452     20455     20454     20452     20455
     20455     20458     20459     20455     20458     20460     20455     20458     20461
     20456     20455     20457     20456     20455     20458     20457     20455     20458
     20458     20461     20462     20458     20461     20463     20458     20461     20464
     20459     20458     20460     20459     20458     20461     20460     20458     20461
     20461     20464     20465     20461     20464     20466     20461     20464     20467
     20462     20461     20463     20462     20461     20464     20463     20461     20464
     20465     20464     20466     20465     20464     20467     20466     20464     20467
     20468     20471     20472     20468     20471     20473     20468     20471     20474
     20469     20468     20470     20469     20468     20471     20470     20468     20471
     20471     20474     20475     20471     20474     20476     20471     20474     20477
     20472     20471     20473     20472     20471     20474     20473     20471     20474
     20474     20477     20478     20474     20477     20479     20474     20477     20480
     20475     20474     20476     20475     20474     20477     20476     20474     20477
     20477     20480     20481     20477     20480     20482     20477     20480     20483
     20478     20477     20479     20478     20477     20480     20479     20477     20480
     20480     20483     20484     20480     20483     20485     20480     20483     20486
     20481     20480     20482     20481     20480     20483     20482     20480     20483
     20483     20486     20487     20483     20486     20488     20483     20486     20489
     20484     20483     20485     20484     20483     20486     20485     20483     20486
     20486     20489     20490     20486     20489     20491     20486     20489     20492
     20487     20486     20488     20487     20486     20489     20488     20486     20489
     20489     20492     20493     20489     20492     20494     20489     20492     20495
     20490     20489     20491     20490     20489     20492     20491     20489     20492
     20492     20495     20496     20492     20495     20497     20492     20495     20498
     20493     20492     20494     20493     20492     20495     20494     20492     20495
     20495     20498     20499     20495     20498     20500     20495     20498     20501
     20496     20495     20497     20496     20495     20498     20497     20495     20498
     20498     20501     20502     20498     20501     20503     20498     20501     20504
     20499     20498     20500     20499     20498     20501     20500     20498     20501
     20501     20504     20505     20501     20504     20506     20501     20504     20507
     20502     20501     20503     20502     20501     20504     20503     20501     20504
     20504     20507     20508     20504     20507     20509     20504     20507     20510
     20505     20504     20506     20505     20504     20507     20506     20504     20507
     20508     20507     20509     20508     20507     20510     20509     20507     20510
     20511     20514     20515     20511     20516     20517     20511     20516     20518
     20511     20516     20520     20512     20511     20513     20512     20511     20514
     20512     20511     20516     20513     20511     20514     20513     20511     20516
     20514     20511     20516     20516     20518     20519     20516     20520     20521
     20516     20520     20522     20516     20520     20527     20517     20516     20518
     20517     20516     20520     20518     20516     20520     20520     20527     20523
     20521     20520     20522     20521     20520     20527     20522     20520     20527
     20523     20526     20528     20524     20523     20525     20524     20523     20526
     20524     20523     20527     20525     20523     20526     20525     20523     20527
     20526     20523     20527     20526     20528     20529     20526     20528     20530
     20526     20528     20531     20528     20531     20532     20528     20531     20533
     20528     20531     20539     20529     20528     20530     20529     20528     20531
     20530     20528     20531     20531     20533     20534     20531     20539     20540
     20531     20539     20541     20531     20539     20542     20532     20531     20533
     20532     20531     20539     20533     20531     20539     20533     20534     20535
     20533     20534     20536     20534     20536     20537     20534     20536     20538
     20534     20536     20548     20535     20534     20536     20536     20548     20549
     20536     20548     20550     20536     20548     20551     20537     20536     20538
     20537     20536     20548     20538     20536     20548     20539     20542     20543
     20540     20539     20541     20540     20539     20542     20541     20539     20542
     20542     20543     20544     20542     20543     20545     20543     20545     20546
     20543     20545     20547     20543     20545     20592     20544     20543     20545
     20545     20592     20593     20545     20592     20594     20545     20592     20595
     20546     20545     20547     20546     20545     20592     20547     20545     20592
     20548     20551     20552     20548     20551     20553     20548     20551     20554
     20549     20548     20550     20549     20548     20551     20550     20548     20551
     20551     20554     20555     20551     20554     20556     20551     20554     20557
     20552     20551     20553     20552     20551     20554     20553     20551     20554
     20554     20557     20558     20554     20557     20559     20554     20557     20560
     20555     20554     20556     20555     20554     20557     20556     20554     20557
     20557     20560     20561     20557     20560     20562     20557     20560     20563
     20558     20557     20559     20558     20557     20560     20559     20557     20560
     20560     20563     20564     20560     20563     20565     20560     20563     20566
     20561     20560     20562     20561     20560     20563     20562     20560     20563
     20563     20566     20567     20563     20566     20568     20563     20566     20571
     20564     20563     20565     20564     20563     20566     20565     20563     20566
     20566     20568     20569     20566     20568     20570     20566     20568     20571
     20566     20571     20568     20566     20571     20572     20566     20571     20573
     20567     20566     20568     20567     20566     20571     20568     20566     20571
     20568     20571     20572     20568     20571     20573     20569     20568     20570
     20569     20568     20571     20570     20568     20571     20571     20573     20574
     20571     20573     20575     20571     20573     20576     20572     20571     20573
     20573     20576     20577     20573     20576     20578     20573     20576     20579
     20574     20573     20575     20574     20573     20576     20575     20573     20576
     20576     20579     20580     20576     20579     20581     20576     20579     20582
     20577     20576     20578     20577     20576     20579     20578     20576     20579
     20579     20582     20583     20579     20582     20584     20579     20582     20585
     20580     20579     20581     20580     20579     20582     20581     20579     20582
     20582     20585     20586     20582     20585     20587     20582     20585     20588
     20583     20582     20584     20583     20582     20585     20584     20582     20585
     20585     20588     20589     20585     20588     20590     20585     20588     20591
     20586     20585     20587     20586     20585     20588     20587     20585     20588
     20589     20588     20590     20589     20588     20591     20590     20588     20591
     20592     20595     20596     20592     20595     20597     20592     20595     20598
     20593     20592     20594     20593     20592     20595     20594     20592     20595
     20595     20598     20599     20595     20598     20600     20595     20598     20601
     20596     20595     20597     20596     20595     20598     20597     20595     20598
     20598     20601     20602     20598     20601     20603     20598     20601     20604
     20599     20598     20600     20599     20598     20601     20600     20598     20601
     20601     20604     20605     20601     20604     20606     20601     20604     20607
     20602     20601     20603     20602     20601     20604     20603     20601     20604
     20604     20607     20608     20604     20607     20609     20604     20607     20610
     20605     20604     20606     20605     20604     20607     20606     20604     20607
     20607     20610     20611     20607     20610     20612     20607     20610     20613
     20608     20607     20609     20608     20607     20610     20609     20607     20610
     20610     20613     20614     20610     20613     20615     20610     20613     20616
     20611     20610     20612     20611     20610     20613     20612     20610     20613
     20613     20616     20617     20613     20616     20618     20613     20616     20619
     20614     20613     20615     20614     20613     20616     20615     20613     20616
     20616     20619     20620     20616     20619     20621     20616     20619     20622
     20617     20616     20618     20617     20616     20619     20618     20616     20619
     20619     20622     20623     20619     20622     20624     20619     20622     20625
     20620     20619     20621     20620     20619     20622     20621     20619     20622
     20622     20625     20626     20622     20625     20627     20622     20625     20628
     20623     20622     20624     20623     20622     20625     20624     20622     20625
     20625     20628     20629     20625     20628     20630     20625     20628     20631
     20626     20625     20627     20626     20625     20628     20627     20625     20628
     20628     20631     20632     20628     20631     20633     20628     20631     20634
     20629     20628     20630     20629     20628     20631     20630     20628     20631
     20632     20631     20633     20632     20631     20634     20633     20631     20634
     20635     20639     20640     20635     20639     20641     20635     20639     20642
     20636     20635     20637     20636     20635     20638     20636     20635     20639
     20637     20635     20638     20637     20635     20639     20638     20635     20639
     20639     20642     20643     20639     20642     20644     20639     20642     20649
     20640     20639     20641     20640     20639     20642     20641     20639     20642
     20642     20649     20645     20643     20642     20644     20643     20642     20649
     20644     20642     20649     20645     20648     20650     20646     20645     20647
     20646     20645     20648     20646     20645     20649     20647     20645     20648
     20647     20645     20649     20648     20645     20649     20648     20650     20651
     20648     20650     20652     20648     20650     20653     20650     20653     20654
     20650     20653     20655     20650     20653     20661     20651     20650     20652
     20651     20650     20653     20652     20650     20653     20653     20655     20656
     20653     20661     20662     20653     20661     20663     20653     20661     20664
     20654     20653     20655     20654     20653     20661     20655     20653     20661
     20655     20656     20657     20655     20656     20658     20656     20658     20659
     20656     20658     20660     20656     20658     20670     20657     20656     20658
     20658     20670     20671     20658     20670     20672     20658     20670     20673
     20659     20658     20660     20659     20658     20670     20660     20658     20670
     20661     20664     20665     20662     20661     20663     20662     20661     20664
     20663     20661     20664     20664     20665     20666     20664     20665     20667
     20665     20667     20668     20665     20667     20669     20665     20667     20714
     20666     20665     20667     20667     20714     20715     20667     20714     20716
     20667     20714     20717     20668     20667     20669     20668     20667     20714
     20669     20667     20714     20670     20673     20674     20670     20673     20675
     20670     20673     20676     20671     20670     20672     20671     20670     20673
     20672     20670     20673     20673     20676     20677     20673     20676     20678
     20673     20676     20679     20674     20673     20675     20674     20673     20676
     20675     20673     20676     20676     20679     20680     20676     20679     20681
     20676     20679     20682     20677     20676     20678     20677     20676     20679
     20678     20676     20679     20679     20682     20683     20679     20682     20684
     20679     20682     20685     20680     20679     20681     20680     20679     20682
     20681     20679     20682     20682     20685     20686     20682     20685     20687
     20682     20685     20688     20683     20682     20684     20683     20682     20685
     20684     20682     20685     20685     20688     20689     20685     20688     20690
     20685     20688     20693     20686     20685     20687     20686     20685     20688
     20687     20685     20688     20688     20690     20691     20688     20690     20692
     20688     20690     20693     20688     20693     20690     20688     20693     20694
     20688     20693     20695     20689     20688     20690     20689     20688     20693
     20690     20688     20693     20690     20693     20694     20690     20693     20695
     20691     20690     20692     20691     20690     20693     20692     20690     20693
     20693     20695     20696     20693     20695     20697     20693     20695     20698
     20694     20693     20695     20695     20698     20699     20695     20698     20700
     20695     20698     20701     20696     20695     20697     20696     20695     20698
     20697     20695     20698     20698     20701     20702     20698     20701     20703
     20698     20701     20704     20699     20698     20700     20699     20698     20701
     20700     20698     20701     20701     20704     20705     20701     20704     20706
     20701     20704     20707     20702     20701     20703     20702     20701     20704
     20703     20701     20704     20704     20707     20708     20704     20707     20709
     20704     20707     20710     20705     20704     20706     20705     20704     20707
     20706     20704     20707     20707     20710     20711     20707     20710     20712
     20707     20710     20713     20708     20707     20709     20708     20707     20710
     20709     20707     20710     20711     20710     20712     20711     20710     20713
     20712     20710     20713     20714     20717     20718     20714     20717     20719
     20714     20717     20720     20715     20714     20716     20715     20714     20717
     20716     20714     20717     20717     20720     20721     20717     20720     20722
     20717     20720     20723     20718     20717     20719     20718     20717     20720
     20719     20717     20720     20720     20723     20724     20720     20723     20725
     20720     20723     20726     20721     20720     20722     20721     20720     20723
     20722     20720     20723     20723     20726     20727     20723     20726     20728
     20723     20726     20729     20724     20723     20725     20724     20723     20726
     20725     20723     20726     20726     20729     20730     20726     20729     20731
     20726     20729     20732     20727     20726     20728     20727     20726     20729
     20728     20726     20729     20729     20732     20733     20729     20732     20734
     20729     20732     20735     20730     20729     20731     20730     20729     20732
     20731     20729     20732     20732     20735     20736     20732     20735     20737
     20732     20735     20738     20733     20732     20734     20733     20732     20735
     20734     20732     20735     20735     20738     20739     20735     20738     20740
     20735     20738     20741     20736     20735     20737     20736     20735     20738
     20737     20735     20738     20738     20741     20742     20738     20741     20743
     20738     20741     20744     20739     20738     20740     20739     20738     20741
     20740     20738     20741     20741     20744     20745     20741     20744     20746
     20741     20744     20747     20742     20741     20743     20742     20741     20744
     20743     20741     20744     20744     20747     20748     20744     20747     20749
     20744     20747     20750     20745     20744     20746     20745     20744     20747
     20746     20744     20747     20747     20750     20751     20747     20750     20752
     20747     20750     20753     20748     20747     20749     20748     20747     20750
     20749     20747     20750     20751     20750     20752     20751     20750     20753
     20752     20750     20753     20754     20758     20759     20754     20758     20760
     20754     20758     20761     20755     20754     20756     20755     20754     20757
     20755     20754     20758     20756     20754     20757     20756     20754     20758
     20757     20754     20758     20758     20761     20762     20758     20761     20763
     20758     20761     20768     20759     20758     20760     20759     20758     20761
     20760     20758     20761     20761     20768     20764     20762     20761     20763
     20762     20761     20768     20763     20761     20768     20764     20767     20769
     20765     20764     20766     20765     20764     20767     20765     20764     20768
     20766     20764     20767     20766     20764     20768     20767     20764     20768
     20767     20769     20770     20767     20769     20771     20767     20769     20772
     20769     20772     20773     20769     20772     20774     20769     20772     20780
     20770     20769     20771     20770     20769     20772     20771     20769     20772
     20772     20774     20775     20772     20780     20781     20772     20780     20782
     20772     20780     20783     20773     20772     20774     20773     20772     20780
     20774     20772     20780     20774     20775     20776     20774     20775     20777
     20775     20777     20778     20775     20777     20779     20775     20777     20789
     20776     20775     20777     20777     20789     20790     20777     20789     20791
     20777     20789     20792     20778     20777     20779     20778     20777     20789
     20779     20777     20789     20780     20783     20784     20781     20780     20782
     20781     20780     20783     20782     20780     20783     20783     20784     20785
     20783     20784     20786     20784     20786     20787     20784     20786     20788
     20784     20786     20833     20785     20784     20786     20786     20833     20834
     20786     20833     20835     20786     20833     20836     20787     20786     20788
     20787     20786     20833     20788     20786     20833     20789     20792     20793
     20789     20792     20794     20789     20792     20795     20790     20789     20791
     20790     20789     20792     20791     20789     20792     20792     20795     20796
     20792     20795     20797     20792     20795     20798     20793     20792     20794
     20793     20792     20795     20794     20792     20795     20795     20798     20799
     20795     20798     20800     20795     20798     20801     20796     20795     20797
     20796     20795     20798     20797     20795     20798     20798     20801     20802
     20798     20801     20803     20798     20801     20804     20799     20798     20800
     20799     20798     20801     20800     20798     20801     20801     20804     20805
     20801     20804     20806     20801     20804     20807     20802     20801     20803
     20802     20801     20804     20803     20801     20804     20804     20807     20808
     20804     20807     20809     20804     20807     20812     20805     20804     20806
     20805     20804     20807     20806     20804     20807     20807     20809     20810
     20807     20809     20811     20807     20809     20812     20807     20812     20809
     20807     20812     20813     20807     20812     20814     20808     20807     20809
     20808     20807     20812     20809     20807     20812     20809     20812     20813
     20809     20812     20814     20810     20809     20811     20810     20809     20812
     20811     20809     20812     20812     20814     20815     20812     20814     20816
     20812     20814     20817     20813     20812     20814     20814     20817     20818
     20814     20817     20819     20814     20817     20820     20815     20814     20816
     20815     20814     20817     20816     20814     20817     20817     20820     20821
     20817     20820     20822     20817     20820     20823     20818     20817     20819
     20818     20817     20820     20819     20817     20820     20820     20823     20824
     20820     20823     20825     20820     20823     20826     20821     20820     20822
     20821     20820     20823     20822     20820     20823     20823     20826     20827
     20823     20826     20828     20823     20826     20829     20824     20823     20825
     20824     20823     20826     20825     20823     20826     20826     20829     20830
     20826     20829     20831     20826     20829     20832     20827     20826     20828
     20827     20826     20829     20828     20826     20829     20830     20829     20831
     20830     20829     20832     20831     20829     20832     20833     20836     20837
     20833     20836     20838     20833     20836     20839     20834     20833     20835
     20834     20833     20836     20835     20833     20836     20836     20839     20840
     20836     20839     20841     20836     20839     20842     20837     20836     20838
     20837     20836     20839     20838     20836     20839     20839     20842     20843
     20839     20842     20844     20839     20842     20845     20840     20839     20841
     20840     20839     20842     20841     20839     20842     20842     20845     20846
     20842     20845     20847     20842     20845     20848     20843     20842     20844
     20843     20842     20845     20844     20842     20845     20845     20848     20849
     20845     20848     20850     20845     20848     20851     20846     20845     20847
     20846     20845     20848     20847     20845     20848     20848     20851     20852
     20848     20851     20853     20848     20851     20854     20849     20848     20850
     20849     20848     20851     20850     20848     20851     20851     20854     20855
     20851     20854     20856     20851     20854     20857     20852     20851     20853
     20852     20851     20854     20853     20851     20854     20854     20857     20858
     20854     20857     20859     20854     20857     20860     20855     20854     20856
     20855     20854     20857     20856     20854     20857     20857     20860     20861
     20857     20860     20862     20857     20860     20863     20858     20857     20859
     20858     20857     20860     20859     20857     20860     20860     20863     20864
     20860     20863     20865     20860     20863     20866     20861     20860     20862
     20861     20860     20863     20862     20860     20863     20863     20866     20867
     20863     20866     20868     20863     20866     20869     20864     20863     20865
     20864     20863     20866     20865     20863     20866     20866     20869     20870
     20866     20869     20871     20866     20869     20872     20867     20866     20868
     20867     20866     20869     20868     20866     20869     20869     20872     20873
     20869     20872     20874     20869     20872     20875     20870     20869     20871
     20870     20869     20872     20871     20869     20872     20873     20872     20874
     20873     20872     20875     20874     20872     20875     20876     20880     20881
     20876     20880     20882     20876     20880     20883     20877     20876     20878
     20877     20876     20879     20877     20876     20880     20878     20876     20879
     20878     20876     20880     20879     20876     20880     20880     20883     20884
     20880     20883     20885     20880     20883     20890     20881     20880     20882
     20881     20880     20883     20882     20880     20883     20883     20890     20886
     20884     20883     20885     20884     20883     20890     20885     20883     20890
     20886     20889     20891     20887     20886     20888     20887     20886     20889
     20887     20886     20890     20888     20886     20889     20888     20886     20890
     20889     20886     20890     20889     20891     20892     20889     20891     20893
     20889     20891     20894     20891     20894     20895     20891     20894     20896
     20891     20894     20902     20892     20891     20893     20892     20891     20894
     20893     20891     20894     20894     20896     20897     20894     20902     20903
     20894     20902     20904     20894     20902     20905     20895     20894     20896
     20895     20894     20902     20896     20894     20902     20896     20897     20898
     20896     20897     20899     20897     20899     20900     20897     20899     20901
     20897     20899     20911     20898     20897     20899     20899     20911     20912
     20899     20911     20913     20899     20911     20914     20900     20899     20901
     20900     20899     20911     20901     20899     20911     20902     20905     20906
     20903     20902     20904     20903     20902     20905     20904     20902     20905
     20905     20906     20907     20905     20906     20908     20906     20908     20909
     20906     20908     20910     20906     20908     20955     20907     20906     20908
     20908     20955     20956     20908     20955     20957     20908     20955     20958
     20909     20908     20910     20909     20908     20955     20910     20908     20955
     20911     20914     20915     20911     20914     20916     20911     20914     20917
     20912     20911     20913     20912     20911     20914     20913     20911     20914
     20914     20917     20918     20914     20917     20919     20914     20917     20920
     20915     20914     20916     20915     20914     20917     20916     20914     20917
     20917     20920     20921     20917     20920     20922     20917     20920     20923
     20918     20917     20919     20918     20917     20920     20919     20917     20920
     20920     20923     20924     20920     20923     20925     20920     20923     20926
     20921     20920     20922     20921     20920     20923     20922     20920     20923
     20923     20926     20927     20923     20926     20928     20923     20926     20929
     20924     20923     20925     20924     20923     20926     20925     20923     20926
     20926     20929     20930     20926     20929     20931     20926     20929     20934
     20927     20926     20928     20927     20926     20929     20928     20926     20929
     20929     20931     20932     20929     20931     20933     20929     20931     20934
     20929     20934     20931     20929     20934     20935     20929     20934     20936
     20930     20929     20931     20930     20929     20934     20931     20929     20934
     20931     20934     20935     20931     20934     20936     20932     20931     20933
     20932     20931     20934     20933     20931     20934     20934     20936     20937
     20934     20936     20938     20934     20936     20939     20935     20934     20936
     20936     20939     20940     20936     20939     20941     20936     20939     20942
     20937     20936     20938     20937     20936     20939     20938     20936     20939
     20939     20942     20943     20939     20942     20944     20939     20942     20945
     20940     20939     20941     20940     20939     20942     20941     20939     20942
     20942     20945     20946     20942     20945     20947     20942     20945     20948
     20943     20942     20944     20943     20942     20945     20944     20942     20945
     20945     20948     20949     20945     20948     20950     20945     20948     20951
     20946     20945     20947     20946     20945     20948     20947     20945     20948
     20948     20951     20952     20948     20951     20953     20948     20951     20954
     20949     20948     20950     20949     20948     20951     20950     20948     20951
     20952     20951     20953     20952     20951     20954     20953     20951     20954
     20955     20958     20959     20955     20958     20960     20955     20958     20961
     20956     20955     20957     20956     20955     20958     20957     20955     20958
     20958     20961     20962     20958     20961     20963     20958     20961     20964
     20959     20958     20960     20959     20958     20961     20960     20958     20961
     20961     20964     20965     20961     20964     20966     20961     20964     20967
     20962     20961     20963     20962     20961     20964     20963     20961     20964
     20964     20967     20968     20964     20967     20969     20964     20967     20970
     20965     20964     20966     20965     20964     20967     20966     20964     20967
     20967     20970     20971     20967     20970     20972     20967     20970     20973
     20968     20967     20969     20968     20967     20970     20969     20967     20970
     20970     20973     20974     20970     20973     20975     20970     20973     20976
     20971     20970     20972     20971     20970     20973     20972     20970     20973
     20973     20976     20977     20973     20976     20978     20973     20976     20979
     20974     20973     20975     20974     20973     20976     20975     20973     20976
     20976     20979     20980     20976     20979     20981     20976     20979     20982
     20977     20976     20978     20977     20976     20979     20978     20976     20979
     20979     20982     20983     20979     20982     20984     20979     20982     20985
     20980     20979     20981     20980     20979     20982     20981     20979     20982
     20982     20985     20986     20982     20985     20987     20982     20985     20988
     20983     20982     20984     20983     20982     20985     20984     20982     20985
     20985     20988     20989     20985     20988     20990     20985     20988     20991
     20986     20985     20987     20986     20985     20988     20987     20985     20988
     20988     20991     20992     20988     20991     20993     20988     20991     20994
     20989     20988     20990     20989     20988     20991     20990     20988     20991
     20991     20994     20995     20991     20994     20996     20991     20994     20997
     20992     20991     20993     20992     20991     20994     20993     20991     20994
     20995     20994     20996     20995     20994     20997     20996     20994     20997
     20998     21002     21003     20998     21002     21004     20998     21002     21005
     20999     20998     21000     20999     20998     21001     20999     20998     21002
     21000     20998     21001     21000     20998     21002     21001     20998     21002
     21002     21005     21006     21002     21005     21007     21002     21005     21012
     21003     21002     21004     21003     21002     21005     21004     21002     21005
     21005     21012     21008     21006     21005     21007     21006     21005     21012
     21007     21005     21012     21008     21011     21013     21009     21008     21010
     21009     21008     21011     21009     21008     21012     21010     21008     21011
     21010     21008     21012     21011     21008     21012     21011     21013     21014
     21011     21013     21015     21011     21013     21016     21013     21016     21017
     21013     21016     21018     21013     21016     21024     21014     21013     21015
     21014     21013     21016     21015     21013     21016     21016     21018     21019
     21016     21024     21025     21016     21024     21026     21016     21024     21027
     21017     21016     21018     21017     21016     21024     21018     21016     21024
     21018     21019     21020     21018     21019     21021     21019     21021     21022
     21019     21021     21023     21019     21021     21033     21020     21019     21021
     21021     21033     21034     21021     21033     21035     21021     21033     21036
     21022     21021     21023     21022     21021     21033     21023     21021     21033
     21024     21027     21028     21025     21024     21026     21025     21024     21027
     21026     21024     21027     21027     21028     21029     21027     21028     21030
     21028     21030     21031     21028     21030     21032     21028     21030     21074
     21029     21028     21030     21030     21074     21075     21030     21074     21076
     21030     21074     21077     21031     21030     21032     21031     21030     21074
     21032     21030     21074     21033     21036     21037     21033     21036     21038
     21033     21036     21039     21034     21033     21035     21034     21033     21036
     21035     21033     21036     21036     21039     21040     21036     21039     21041
     21036     21039     21042     21037     21036     21038     21037     21036     21039
     21038     21036     21039     21039     21042     21043     21039     21042     21044
     21039     21042     21045     21040     21039     21041     21040     21039     21042
     21041     21039     21042     21042     21045     21046     21042     21045     21047
     21042     21045     21048     21043     21042     21044     21043     21042     21045
     21044     21042     21045     21045     21048     21049     21045     21048     21050
     21045     21048     21051     21046     21045     21047     21046     21045     21048
     21047     21045     21048     21048     21051     21052     21048     21051     21053
     21049     21048     21050     21049     21048     21051     21050     21048     21051
     21051     21053     21054     21051     21053     21055     21052     21051     21053
     21053     21055     21056     21053     21055     21057     21053     21055     21058
     21054     21053     21055     21055     21058     21059     21055     21058     21060
     21055     21058     21061     21056     21055     21057     21056     21055     21058
     21057     21055     21058     21058     21061     21062     21058     21061     21063
     21058     21061     21064     21059     21058     21060     21059     21058     21061
     21060     21058     21061     21061     21064     21065     21061     21064     21066
     21061     21064     21067     21062     21061     21063     21062     21061     21064
     21063     21061     21064     21064     21067     21068     21064     21067     21069
     21064     21067     21070     21065     21064     21066     21065     21064     21067
     21066     21064     21067     21067     21070     21071     21067     21070     21072
     21067     21070     21073     21068     21067     21069     21068     21067     21070
     21069     21067     21070     21071     21070     21072     21071     21070     21073
     21072     21070     21073     21074     21077     21078     21074     21077     21079
     21074     21077     21080     21075     21074     21076     21075     21074     21077
     21076     21074     21077     21077     21080     21081     21077     21080     21082
     21077     21080     21083     21078     21077     21079     21078     21077     21080
     21079     21077     21080     21080     21083     21084     21080     21083     21085
     21080     21083     21086     21081     21080     21082     21081     21080     21083
     21082     21080     21083     21083     21086     21087     21083     21086     21088
     21083     21086     21089     21084     21083     21085     21084     21083     21086
     21085     21083     21086     21086     21089     21090     21086     21089     21091
     21086     21089     21092     21087     21086     21088     21087     21086     21089
     21088     21086     21089     21089     21092     21093     21089     21092     21094
     21090     21089     21091     21090     21089     21092     21091     21089     21092
     21092     21094     21095     21092     21094     21096     21093     21092     21094
     21094     21096     21097     21094     21096     21098     21094     21096     21099
     21095     21094     21096     21096     21099     21100     21096     21099     21101
     21096     21099     21102     21097     21096     21098     21097     21096     21099
     21098     21096     21099     21099     21102     21103     21099     21102     21104
     21099     21102     21105     21100     21099     21101     21100     21099     21102
     21101     21099     21102     21102     21105     21106     21102     21105     21107
     21102     21105     21108     21103     21102     21104     21103     21102     21105
     21104     21102     21105     21105     21108     21109     21105     21108     21110
     21105     21108     21111     21106     21105     21107     21106     21105     21108
     21107     21105     21108     21108     21111     21112     21108     21111     21113
     21108     21111     21114     21109     21108     21110     21109     21108     21111
     21110     21108     21111     21111     21114     21115     21111     21114     21116
     21111     21114     21117     21112     21111     21113     21112     21111     21114
     21113     21111     21114     21114     21117     21118     21114     21117     21119
     21114     21117     21120     21115     21114     21116     21115     21114     21117
     21116     21114     21117     21118     21117     21119     21118     21117     21120
     21119     21117     21120     21121     21124     21125     21121     21126     21127
     21121     21126     21128     21121     21126     21130     21122     21121     21123
     21122     21121     21124     21122     21121     21126     21123     21121     21124
     21123     21121     21126     21124     21121     21126     21126     21128     21129
     21126     21130     21131     21126     21130     21132     21126     21130     21137
     21127     21126     21128     21127     21126     21130     21128     21126     21130
     21130     21137     21133     21131     21130     21132     21131     21130     21137
     21132     21130     21137     21133     21136     21138     21134     21133     21135
     21134     21133     21136     21134     21133     21137     21135     21133     21136
     21135     21133     21137     21136     21133     21137     21136     21138     21139
     21136     21138     21140     21136     21138     21141     21138     21141     21142
     21138     21141     21143     21138     21141     21149     21139     21138     21140
     21139     21138     21141     21140     21138     21141     21141     21143     21144
     21141     21149     21150     21141     21149     21151     21141     21149     21152
     21142     21141     21143     21142     21141     21149     21143     21141     21149
     21143     21144     21145     21143     21144     21146     21144     21146     21147
     21144     21146     21148     21144     21146     21158     21145     21144     21146
     21146     21158     21159     21146     21158     21160     21146     21158     21161
     21147     21146     21148     21147     21146     21158     21148     21146     21158
     21149     21152     21153     21150     21149     21151     21150     21149     21152
     21151     21149     21152     21152     21153     21154     21152     21153     21155
     21153     21155     21156     21153     21155     21157     21153     21155     21199
     21154     21153     21155     21155     21199     21200     21155     21199     21201
     21155     21199     21202     21156     21155     21157     21156     21155     21199
     21157     21155     21199     21158     21161     21162     21158     21161     21163
     21158     21161     21164     21159     21158     21160     21159     21158     21161
     21160     21158     21161     21161     21164     21165     21161     21164     21166
     21161     21164     21167     21162     21161     21163     21162     21161     21164
     21163     21161     21164     21164     21167     21168     21164     21167     21169
     21164     21167     21170     21165     21164     21166     21165     21164     21167
     21166     21164     21167     21167     21170     21171     21167     21170     21172
     21167     21170     21173     21168     21167     21169     21168     21167     21170
     21169     21167     21170     21170     21173     21174     21170     21173     21175
     21170     21173     21176     21171     21170     21172     21171     21170     21173
     21172     21170     21173     21173     21176     21177     21173     21176     21178
     21174     21173     21175     21174     21173     21176     21175     21173     21176
     21176     21178     21179     21176     21178     21180     21177     21176     21178
     21178     21180     21181     21178     21180     21182     21178     21180     21183
     21179     21178     21180     21180     21183     21184     21180     21183     21185
     21180     21183     21186     21181     21180     21182     21181     21180     21183
     21182     21180     21183     21183     21186     21187     21183     21186     21188
     21183     21186     21189     21184     21183     21185     21184     21183     21186
     21185     21183     21186     21186     21189     21190     21186     21189     21191
     21186     21189     21192     21187     21186     21188     21187     21186     21189
     21188     21186     21189     21189     21192     21193     21189     21192     21194
     21189     21192     21195     21190     21189     21191     21190     21189     21192
     21191     21189     21192     21192     21195     21196     21192     21195     21197
     21192     21195     21198     21193     21192     21194     21193     21192     21195
     21194     21192     21195     21196     21195     21197     21196     21195     21198
     21197     21195     21198     21199     21202     21203     21199     21202     21204
     21199     21202     21205     21200     21199     21201     21200     21199     21202
     21201     21199     21202     21202     21205     21206     21202     21205     21207
     21202     21205     21208     21203     21202     21204     21203     21202     21205
     21204     21202     21205     21205     21208     21209     21205     21208     21210
     21205     21208     21211     21206     21205     21207     21206     21205     21208
     21207     21205     21208     21208     21211     21212     21208     21211     21213
     21208     21211     21214     21209     21208     21210     21209     21208     21211
     21210     21208     21211     21211     21214     21215     21211     21214     21216
     21211     21214     21217     21212     21211     21213     21212     21211     21214
     21213     21211     21214     21214     21217     21218     21214     21217     21219
     21214     21217     21220     21215     21214     21216     21215     21214     21217
     21216     21214     21217     21217     21220     21221     21217     21220     21222
     21217     21220     21223     21218     21217     21219     21218     21217     21220
     21219     21217     21220     21220     21223     21224     21220     21223     21225
     21220     21223     21226     21221     21220     21222     21221     21220     21223
     21222     21220     21223     21223     21226     21227     21223     21226     21228
     21223     21226     21229     21224     21223     21225     21224     21223     21226
     21225     21223     21226     21226     21229     21230     21226     21229     21231
     21226     21229     21232     21227     21226     21228     21227     21226     21229
     21228     21226     21229     21229     21232     21233     21229     21232     21234
     21229     21232     21235     21230     21229     21231     21230     21229     21232
     21231     21229     21232     21232     21235     21236     21232     21235     21237
     21232     21235     21238     21233     21232     21234     21233     21232     21235
     21234     21232     21235     21235     21238     21239     21235     21238     21240
     21235     21238     21241     21236     21235     21237     21236     21235     21238
     21237     21235     21238     21239     21238     21240     21239     21238     21241
     21240     21238     21241     21242     21246     21247     21242     21246     21248
     21242     21246     21249     21243     21242     21244     21243     21242     21245
     21243     21242     21246     21244     21242     21245     21244     21242     21246
     21245     21242     21246     21246     21249     21250     21246     21249     21251
     21246     21249     21256     21247     21246     21248     21247     21246     21249
     21248     21246     21249     21249     21256     21252     21250     21249     21251
     21250     21249     21256     21251     21249     21256     21252     21255     21257
     21253     21252     21254     21253     21252     21255     21253     21252     21256
     21254     21252     21255     21254     21252     21256     21255     21252     21256
     21255     21257     21258     21255     21257     21259     21255     21257     21260
     21257     21260     21261     21257     21260     21262     21257     21260     21268
     21258     21257     21259     21258     21257     21260     21259     21257     21260
     21260     21262     21263     21260     21268     21269     21260     21268     21270
     21260     21268     21271     21261     21260     21262     21261     21260     21268
     21262     21260     21268     21262     21263     21264     21262     21263     21265
     21263     21265     21266     21263     21265     21267     21263     21265     21277
     21264     21263     21265     21265     21277     21278     21265     21277     21279
     21265     21277     21280     21266     21265     21267     21266     21265     21277
     21267     21265     21277     21268     21271     21272     21269     21268     21270
     21269     21268     21271     21270     21268     21271     21271     21272     21273
     21271     21272     21274     21272     21274     21275     21272     21274     21276
     21272     21274     21321     21273     21272     21274     21274     21321     21322
     21274     21321     21323     21274     21321     21324     21275     21274     21276
     21275     21274     21321     21276     21274     21321     21277     21280     21281
     21277     21280     21282     21277     21280     21283     21278     21277     21279
     21278     21277     21280     21279     21277     21280     21280     21283     21284
     21280     21283     21285     21280     21283     21286     21281     21280     21282
     21281     21280     21283     21282     21280     21283     21283     21286     21287
     21283     21286     21288     21283     21286     21289     21284     21283     21285
     21284     21283     21286     21285     21283     21286     21286     21289     21290
     21286     21289     21291     21286     21289     21292     21287     21286     21288
     21287     21286     21289     21288     21286     21289     21289     21292     21293
     21289     21292     21294     21289     21292     21295     21290     21289     21291
     21290     21289     21292     21291     21289     21292     21292     21295     21296
     21292     21295     21297     21292     21295     21300     21293     21292     21294
     21293     21292     21295     21294     21292     21295     21295     21297     21298
     21295     21297     21299     21295     21297     21300     21295     21300     21297
     21295     21300     21301     21295     21300     21302     21296     21295     21297
     21296     21295     21300     21297     21295     21300     21297     21300     21301
     21297     21300     21302     21298     21297     21299     21298     21297     21300
     21299     21297     21300     21300     21302     21303     21300     21302     21304
     21300     21302     21305     21301     21300     21302     21302     21305     21306
     21302     21305     21307     21302     21305     21308     21303     21302     21304
     21303     21302     21305     21304     21302     21305     21305     21308     21309
     21305     21308     21310     21305     21308     21311     21306     21305     21307
     21306     21305     21308     21307     21305     21308     21308     21311     21312
     21308     21311     21313     21308     21311     21314     21309     21308     21310
     21309     21308     21311     21310     21308     21311     21311     21314     21315
     21311     21314     21316     21311     21314     21317     21312     21311     21313
     21312     21311     21314     21313     21311     21314     21314     21317     21318
     21314     21317     21319     21314     21317     21320     21315     21314     21316
     21315     21314     21317     21316     21314     21317     21318     21317     21319
     21318     21317     21320     21319     21317     21320     21321     21324     21325
     21321     21324     21326     21321     21324     21327     21322     21321     21323
     21322     21321     21324     21323     21321     21324     21324     21327     21328
     21324     21327     21329     21324     21327     21330     21325     21324     21326
     21325     21324     21327     21326     21324     21327     21327     21330     21331
     21327     21330     21332     21327     21330     21333     21328     21327     21329
     21328     21327     21330     21329     21327     21330     21330     21333     21334
     21330     21333     21335     21330     21333     21336     21331     21330     21332
     21331     21330     21333     21332     21330     21333     21333     21336     21337
     21333     21336     21338     21333     21336     21339     21334     21333     21335
     21334     21333     21336     21335     21333     21336     21336     21339     21340
     21336     21339     21341     21336     21339     21342     21337     21336     21338
     21337     21336     21339     21338     21336     21339     21339     21342     21343
     21339     21342     21344     21339     21342     21345     21340     21339     21341
     21340     21339     21342     21341     21339     21342     21342     21345     21346
     21342     21345     21347     21342     21345     21348     21343     21342     21344
     21343     21342     21345     21344     21342     21345     21345     21348     21349
     21345     21348     21350     21345     21348     21351     21346     21345     21347
     21346     21345     21348     21347     21345     21348     21348     21351     21352
     21348     21351     21353     21348     21351     21354     21349     21348     21350
     21349     21348     21351     21350     21348     21351     21351     21354     21355
     21351     21354     21356     21351     21354     21357     21352     21351     21353
     21352     21351     21354     21353     21351     21354     21354     21357     21358
     21354     21357     21359     21354     21357     21360     21355     21354     21356
     21355     21354     21357     21356     21354     21357     21357     21360     21361
     21357     21360     21362     21357     21360     21363     21358     21357     21359
     21358     21357     21360     21359     21357     21360     21361     21360     21362
     21361     21360     21363     21362     21360     21363     21364     21368     21369
     21364     21368     21370     21364     21368     21371     21365     21364     21366
     21365     21364     21367     21365     21364     21368     21366     21364     21367
     21366     21364     21368     21367     21364     21368     21368     21371     21372
     21368     21371     21373     21368     21371     21378     21369     21368     21370
     21369     21368     21371     21370     21368     21371     21371     21378     21374
     21372     21371     21373     21372     21371     21378     21373     21371     21378
     21374     21377     21379     21375     21374     21376     21375     21374     21377
     21375     21374     21378     21376     21374     21377     21376     21374     21378
     21377     21374     21378     21377     21379     21380     21377     21379     21381
     21377     21379     21382     21379     21382     21383     21379     21382     21384
     21379     21382     21390     21380     21379     21381     21380     21379     21382
     21381     21379     21382     21382     21384     21385     21382     21390     21391
     21382     21390     21392     21382     21390     21393     21383     21382     21384
     21383     21382     21390     21384     21382     21390     21384     21385     21386
     21384     21385     21387     21385     21387     21388     21385     21387     21389
     21385     21387     21399     21386     21385     21387     21387     21399     21400
     21387     21399     21401     21387     21399     21402     21388     21387     21389
     21388     21387     21399     21389     21387     21399     21390     21393     21394
     21391     21390     21392     21391     21390     21393     21392     21390     21393
     21393     21394     21395     21393     21394     21396     21394     21396     21397
     21394     21396     21398     21394     21396     21443     21395     21394     21396
     21396     21443     21444     21396     21443     21445     21396     21443     21446
     21397     21396     21398     21397     21396     21443     21398     21396     21443
     21399     21402     21403     21399     21402     21404     21399     21402     21405
     21400     21399     21401     21400     21399     21402     21401     21399     21402
     21402     21405     21406     21402     21405     21407     21402     21405     21408
     21403     21402     21404     21403     21402     21405     21404     21402     21405
     21405     21408     21409     21405     21408     21410     21405     21408     21411
     21406     21405     21407     21406     21405     21408     21407     21405     21408
     21408     21411     21412     21408     21411     21413     21408     21411     21414
     21409     21408     21410     21409     21408     21411     21410     21408     21411
     21411     21414     21415     21411     21414     21416     21411     21414     21417
     21412     21411     21413     21412     21411     21414     21413     21411     21414
     21414     21417     21418     21414     21417     21419     21414     21417     21422
     21415     21414     21416     21415     21414     21417     21416     21414     21417
     21417     21419     21420     21417     21419     21421     21417     21419     21422
     21417     21422     21419     21417     21422     21423     21417     21422     21424
     21418     21417     21419     21418     21417     21422     21419     21417     21422
     21419     21422     21423     21419     21422     21424     21420     21419     21421
     21420     21419     21422     21421     21419     21422     21422     21424     21425
     21422     21424     21426     21422     21424     21427     21423     21422     21424
     21424     21427     21428     21424     21427     21429     21424     21427     21430
     21425     21424     21426     21425     21424     21427     21426     21424     21427
     21427     21430     21431     21427     21430     21432     21427     21430     21433
     21428     21427     21429     21428     21427     21430     21429     21427     21430
     21430     21433     21434     21430     21433     21435     21430     21433     21436
     21431     21430     21432     21431     21430     21433     21432     21430     21433
     21433     21436     21437     21433     21436     21438     21433     21436     21439
     21434     21433     21435     21434     21433     21436     21435     21433     21436
     21436     21439     21440     21436     21439     21441     21436     21439     21442
     21437     21436     21438     21437     21436     21439     21438     21436     21439
     21440     21439     21441     21440     21439     21442     21441     21439     21442
     21443     21446     21447     21443     21446     21448     21443     21446     21449
     21444     21443     21445     21444     21443     21446     21445     21443     21446
     21446     21449     21450     21446     21449     21451     21446     21449     21452
     21447     21446     21448     21447     21446     21449     21448     21446     21449
     21449     21452     21453     21449     21452     21454     21449     21452     21455
     21450     21449     21451     21450     21449     21452     21451     21449     21452
     21452     21455     21456     21452     21455     21457     21452     21455     21458
     21453     21452     21454     21453     21452     21455     21454     21452     21455
     21455     21458     21459     21455     21458     21460     21455     21458     21461
     21456     21455     21457     21456     21455     21458     21457     21455     21458
     21458     21461     21462     21458     21461     21463     21458     21461     21464
     21459     21458     21460     21459     21458     21461     21460     21458     21461
     21461     21464     21465     21461     21464     21466     21461     21464     21467
     21462     21461     21463     21462     21461     21464     21463     21461     21464
     21464     21467     21468     21464     21467     21469     21464     21467     21470
     21465     21464     21466     21465     21464     21467     21466     21464     21467
     21467     21470     21471     21467     21470     21472     21467     21470     21473
     21468     21467     21469     21468     21467     21470     21469     21467     21470
     21470     21473     21474     21470     21473     21475     21470     21473     21476
     21471     21470     21472     21471     21470     21473     21472     21470     21473
     21473     21476     21477     21473     21476     21478     21473     21476     21479
     21474     21473     21475     21474     21473     21476     21475     21473     21476
     21476     21479     21480     21476     21479     21481     21476     21479     21482
     21477     21476     21478     21477     21476     21479     21478     21476     21479
     21479     21482     21483     21479     21482     21484     21479     21482     21485
     21480     21479     21481     21480     21479     21482     21481     21479     21482
     21483     21482     21484     21483     21482     21485     21484     21482     21485
     21486     21490     21491     21486     21490     21492     21486     21490     21493
     21487     21486     21488     21487     21486     21489     21487     21486     21490
     21488     21486     21489     21488     21486     21490     21489     21486     21490
     21490     21493     21494     21490     21493     21495     21490     21493     21500
     21491     21490     21492     21491     21490     21493     21492     21490     21493
     21493     21500     21496     21494     21493     21495     21494     21493     21500
     21495     21493     21500     21496     21499     21501     21497     21496     21498
     21497     21496     21499     21497     21496     21500     21498     21496     21499
     21498     21496     21500     21499     21496     21500     21499     21501     21502
     21499     21501     21503     21499     21501     21504     21501     21504     21505
     21501     21504     21506     21501     21504     21512     21502     21501     21503
     21502     21501     21504     21503     21501     21504     21504     21506     21507
     21504     21512     21513     21504     21512     21514     21504     21512     21515
     21505     21504     21506     21505     21504     21512     21506     21504     21512
     21506     21507     21508     21506     21507     21509     21507     21509     21510
     21507     21509     21511     21507     21509     21521     21508     21507     21509
     21509     21521     21522     21509     21521     21523     21509     21521     21524
     21510     21509     21511     21510     21509     21521     21511     21509     21521
     21512     21515     21516     21513     21512     21514     21513     21512     21515
     21514     21512     21515     21515     21516     21517     21515     21516     21518
     21516     21518     21519     21516     21518     21520     21516     21518     21565
     21517     21516     21518     21518     21565     21566     21518     21565     21567
     21518     21565     21568     21519     21518     21520     21519     21518     21565
     21520     21518     21565     21521     21524     21525     21521     21524     21526
     21521     21524     21527     21522     21521     21523     21522     21521     21524
     21523     21521     21524     21524     21527     21528     21524     21527     21529
     21524     21527     21530     21525     21524     21526     21525     21524     21527
     21526     21524     21527     21527     21530     21531     21527     21530     21532
     21527     21530     21533     21528     21527     21529     21528     21527     21530
     21529     21527     21530     21530     21533     21534     21530     21533     21535
     21530     21533     21536     21531     21530     21532     21531     21530     21533
     21532     21530     21533     21533     21536     21537     21533     21536     21538
     21533     21536     21539     21534     21533     21535     21534     21533     21536
     21535     21533     21536     21536     21539     21540     21536     21539     21541
     21536     21539     21544     21537     21536     21538     21537     21536     21539
     21538     21536     21539     21539     21541     21542     21539     21541     21543
     21539     21541     21544     21539     21544     21541     21539     21544     21545
     21539     21544     21546     21540     21539     21541     21540     21539     21544
     21541     21539     21544     21541     21544     21545     21541     21544     21546
     21542     21541     21543     21542     21541     21544     21543     21541     21544
     21544     21546     21547     21544     21546     21548     21544     21546     21549
     21545     21544     21546     21546     21549     21550     21546     21549     21551
     21546     21549     21552     21547     21546     21548     21547     21546     21549
     21548     21546     21549     21549     21552     21553     21549     21552     21554
     21549     21552     21555     21550     21549     21551     21550     21549     21552
     21551     21549     21552     21552     21555     21556     21552     21555     21557
     21552     21555     21558     21553     21552     21554     21553     21552     21555
     21554     21552     21555     21555     21558     21559     21555     21558     21560
     21555     21558     21561     21556     21555     21557     21556     21555     21558
     21557     21555     21558     21558     21561     21562     21558     21561     21563
     21558     21561     21564     21559     21558     21560     21559     21558     21561
     21560     21558     21561     21562     21561     21563     21562     21561     21564
     21563     21561     21564     21565     21568     21569     21565     21568     21570
     21565     21568     21571     21566     21565     21567     21566     21565     21568
     21567     21565     21568     21568     21571     21572     21568     21571     21573
     21568     21571     21574     21569     21568     21570     21569     21568     21571
     21570     21568     21571     21571     21574     21575     21571     21574     21576
     21571     21574     21577     21572     21571     21573     21572     21571     21574
     21573     21571     21574     21574     21577     21578     21574     21577     21579
     21574     21577     21580     21575     21574     21576     21575     21574     21577
     21576     21574     21577     21577     21580     21581     21577     21580     21582
     21577     21580     21583     21578     21577     21579     21578     21577     21580
     21579     21577     21580     21580     21583     21584     21580     21583     21585
     21580     21583     21586     21581     21580     21582     21581     21580     21583
     21582     21580     21583     21583     21586     21587     21583     21586     21588
     21583     21586     21589     21584     21583     21585     21584     21583     21586
     21585     21583     21586     21586     21589     21590     21586     21589     21591
     21586     21589     21592     21587     21586     21588     21587     21586     21589
     21588     21586     21589     21589     21592     21593     21589     21592     21594
     21589     21592     21595     21590     21589     21591     21590     21589     21592
     21591     21589     21592     21592     21595     21596     21592     21595     21597
     21592     21595     21598     21593     21592     21594     21593     21592     21595
     21594     21592     21595     21595     21598     21599     21595     21598     21600
     21595     21598     21601     21596     21595     21597     21596     21595     21598
     21597     21595     21598     21598     21601     21602     21598     21601     21603
     21598     21601     21604     21599     21598     21600     21599     21598     21601
     21600     21598     21601     21601     21604     21605     21601     21604     21606
     21601     21604     21607     21602     21601     21603     21602     21601     21604
     21603     21601     21604     21605     21604     21606     21605     21604     21607
     21606     21604     21607     21608     21612     21613     21608     21612     21614
     21608     21612     21615     21609     21608     21610     21609     21608     21611
     21609     21608     21612     21610     21608     21611     21610     21608     21612
     21611     21608     21612     21612     21615     21616     21612     21615     21617
     21612     21615     21622     21613     21612     21614     21613     21612     21615
     21614     21612     21615     21615     21622     21618     21616     21615     21617
     21616     21615     21622     21617     21615     21622     21618     21621     21623
     21619     21618     21620     21619     21618     21621     21619     21618     21622
     21620     21618     21621     21620     21618     21622     21621     21618     21622
     21621     21623     21624     21621     21623     21625     21621     21623     21626
     21623     21626     21627     21623     21626     21628     21623     21626     21634
     21624     21623     21625     21624     21623     21626     21625     21623     21626
     21626     21628     21629     21626     21634     21635     21626     21634     21636
     21626     21634     21637     21627     21626     21628     21627     21626     21634
     21628     21626     21634     21628     21629     21630     21628     21629     21631
     21629     21631     21632     21629     21631     21633     21629     21631     21643
     21630     21629     21631     21631     21643     21644     21631     21643     21645
     21631     21643     21646     21632     21631     21633     21632     21631     21643
     21633     21631     21643     21634     21637     21638     21635     21634     21636
     21635     21634     21637     21636     21634     21637     21637     21638     21639
     21637     21638     21640     21638     21640     21641     21638     21640     21642
     21638     21640     21687     21639     21638     21640     21640     21687     21688
     21640     21687     21689     21640     21687     21690     21641     21640     21642
     21641     21640     21687     21642     21640     21687     21643     21646     21647
     21643     21646     21648     21643     21646     21649     21644     21643     21645
     21644     21643     21646     21645     21643     21646     21646     21649     21650
     21646     21649     21651     21646     21649     21652     21647     21646     21648
     21647     21646     21649     21648     21646     21649     21649     21652     21653
     21649     21652     21654     21649     21652     21655     21650     21649     21651
     21650     21649     21652     21651     21649     21652     21652     21655     21656
     21652     21655     21657     21652     21655     21658     21653     21652     21654
     21653     21652     21655     21654     21652     21655     21655     21658     21659
     21655     21658     21660     21655     21658     21661     21656     21655     21657
     21656     21655     21658     21657     21655     21658     21658     21661     21662
     21658     21661     21663     21658     21661     21666     21659     21658     21660
     21659     21658     21661     21660     21658     21661     21661     21663     21664
     21661     21663     21665     21661     21663     21666     21661     21666     21663
     21661     21666     21667     21661     21666     21668     21662     21661     21663
     21662     21661     21666     21663     21661     21666     21663     21666     21667
     21663     21666     21668     21664     21663     21665     21664     21663     21666
     21665     21663     21666     21666     21668     21669     21666     21668     21670
     21666     21668     21671     21667     21666     21668     21668     21671     21672
     21668     21671     21673     21668     21671     21674     21669     21668     21670
     21669     21668     21671     21670     21668     21671     21671     21674     21675
     21671     21674     21676     21671     21674     21677     21672     21671     21673
     21672     21671     21674     21673     21671     21674     21674     21677     21678
     21674     21677     21679     21674     21677     21680     21675     21674     21676
     21675     21674     21677     21676     21674     21677     21677     21680     21681
     21677     21680     21682     21677     21680     21683     21678     21677     21679
     21678     21677     21680     21679     21677     21680     21680     21683     21684
     21680     21683     21685     21680     21683     21686     21681     21680     21682
     21681     21680     21683     21682     21680     21683     21684     21683     21685
     21684     21683     21686     21685     21683     21686     21687     21690     21691
     21687     21690     21692     21687     21690     21693     21688     21687     21689
     21688     21687     21690     21689     21687     21690     21690     21693     21694
     21690     21693     21695     21690     21693     21696     21691     21690     21692
     21691     21690     21693     21692     21690     21693     21693     21696     21697
     21693     21696     21698     21693     21696     21699     21694     21693     21695
     21694     21693     21696     21695     21693     21696     21696     21699     21700
     21696     21699     21701     21696     21699     21702     21697     21696     21698
     21697     21696     21699     21698     21696     21699     21699     21702     21703
     21699     21702     21704     21699     21702     21705     21700     21699     21701
     21700     21699     21702     21701     21699     21702     21702     21705     21706
     21702     21705     21707     21702     21705     21708     21703     21702     21704
     21703     21702     21705     21704     21702     21705     21705     21708     21709
     21705     21708     21710     21705     21708     21711     21706     21705     21707
     21706     21705     21708     21707     21705     21708     21708     21711     21712
     21708     21711     21713     21708     21711     21714     21709     21708     21710
     21709     21708     21711     21710     21708     21711     21711     21714     21715
     21711     21714     21716     21711     21714     21717     21712     21711     21713
     21712     21711     21714     21713     21711     21714     21714     21717     21718
     21714     21717     21719     21714     21717     21720     21715     21714     21716
     21715     21714     21717     21716     21714     21717     21717     21720     21721
     21717     21720     21722     21717     21720     21723     21718     21717     21719
     21718     21717     21720     21719     21717     21720     21720     21723     21724
     21720     21723     21725     21720     21723     21726     21721     21720     21722
     21721     21720     21723     21722     21720     21723     21723     21726     21727
     21723     21726     21728     21723     21726     21729     21724     21723     21725
     21724     21723     21726     21725     21723     21726     21727     21726     21728
     21727     21726     21729     21728     21726     21729     21730     21734     21735
     21730     21734     21736     21730     21734     21737     21731     21730     21732
     21731     21730     21733     21731     21730     21734     21732     21730     21733
     21732     21730     21734     21733     21730     21734     21734     21737     21738
     21734     21737     21739     21734     21737     21744     21735     21734     21736
     21735     21734     21737     21736     21734     21737     21737     21744     21740
     21738     21737     21739     21738     21737     21744     21739     21737     21744
     21740     21743     21745     21741     21740     21742     21741     21740     21743
     21741     21740     21744     21742     21740     21743     21742     21740     21744
     21743     21740     21744     21743     21745     21746     21743     21745     21747
     21743     21745     21748     21745     21748     21749     21745     21748     21750
     21745     21748     21756     21746     21745     21747     21746     21745     21748
     21747     21745     21748     21748     21750     21751     21748     21756     21757
     21748     21756     21758     21748     21756     21759     21749     21748     21750
     21749     21748     21756     21750     21748     21756     21750     21751     21752
     21750     21751     21753     21751     21753     21754     21751     21753     21755
     21751     21753     21765     21752     21751     21753     21753     21765     21766
     21753     21765     21767     21753     21765     21768     21754     21753     21755
     21754     21753     21765     21755     21753     21765     21756     21759     21760
     21757     21756     21758     21757     21756     21759     21758     21756     21759
     21759     21760     21761     21759     21760     21762     21760     21762     21763
     21760     21762     21764     21760     21762     21809     21761     21760     21762
     21762     21809     21810     21762     21809     21811     21762     21809     21812
     21763     21762     21764     21763     21762     21809     21764     21762     21809
     21765     21768     21769     21765     21768     21770     21765     21768     21771
     21766     21765     21767     21766     21765     21768     21767     21765     21768
     21768     21771     21772     21768     21771     21773     21768     21771     21774
     21769     21768     21770     21769     21768     21771     21770     21768     21771
     21771     21774     21775     21771     21774     21776     21771     21774     21777
     21772     21771     21773     21772     21771     21774     21773     21771     21774
     21774     21777     21778     21774     21777     21779     21774     21777     21780
     21775     21774     21776     21775     21774     21777     21776     21774     21777
     21777     21780     21781     21777     21780     21782     21777     21780     21783
     21778     21777     21779     21778     21777     21780     21779     21777     21780
     21780     21783     21784     21780     21783     21785     21780     21783     21788
     21781     21780     21782     21781     21780     21783     21782     21780     21783
     21783     21785     21786     21783     21785     21787     21783     21785     21788
     21783     21788     21785     21783     21788     21789     21783     21788     21790
     21784     21783     21785     21784     21783     21788     21785     21783     21788
     21785     21788     21789     21785     21788     21790     21786     21785     21787
     21786     21785     21788     21787     21785     21788     21788     21790     21791
     21788     21790     21792     21788     21790     21793     21789     21788     21790
     21790     21793     21794     21790     21793     21795     21790     21793     21796
     21791     21790     21792     21791     21790     21793     21792     21790     21793
     21793     21796     21797     21793     21796     21798     21793     21796     21799
     21794     21793     21795     21794     21793     21796     21795     21793     21796
     21796     21799     21800     21796     21799     21801     21796     21799     21802
     21797     21796     21798     21797     21796     21799     21798     21796     21799
     21799     21802     21803     21799     21802     21804     21799     21802     21805
     21800     21799     21801     21800     21799     21802     21801     21799     21802
     21802     21805     21806     21802     21805     21807     21802     21805     21808
     21803     21802     21804     21803     21802     21805     21804     21802     21805
     21806     21805     21807     21806     21805     21808     21807     21805     21808
     21809     21812     21813     21809     21812     21814     21809     21812     21815
     21810     21809     21811     21810     21809     21812     21811     21809     21812
     21812     21815     21816     21812     21815     21817     21812     21815     21818
     21813     21812     21814     21813     21812     21815     21814     21812     21815
     21815     21818     21819     21815     21818     21820     21815     21818     21821
     21816     21815     21817     21816     21815     21818     21817     21815     21818
     21818     21821     21822     21818     21821     21823     21818     21821     21824
     21819     21818     21820     21819     21818     21821     21820     21818     21821
     21821     21824     21825     21821     21824     21826     21821     21824     21827
     21822     21821     21823     21822     21821     21824     21823     21821     21824
     21824     21827     21828     21824     21827     21829     21824     21827     21830
     21825     21824     21826     21825     21824     21827     21826     21824     21827
     21827     21830     21831     21827     21830     21832     21827     21830     21833
     21828     21827     21829     21828     21827     21830     21829     21827     21830
     21830     21833     21834     21830     21833     21835     21830     21833     21836
     21831     21830     21832     21831     21830     21833     21832     21830     21833
     21833     21836     21837     21833     21836     21838     21833     21836     21839
     21834     21833     21835     21834     21833     21836     21835     21833     21836
     21836     21839     21840     21836     21839     21841     21836     21839     21842
     21837     21836     21838     21837     21836     21839     21838     21836     21839
     21839     21842     21843     21839     21842     21844     21839     21842     21845
     21840     21839     21841     21840     21839     21842     21841     21839     21842
     21842     21845     21846     21842     21845     21847     21842     21845     21848
     21843     21842     21844     21843     21842     21845     21844     21842     21845
     21845     21848     21849     21845     21848     21850     21845     21848     21851
     21846     21845     21847     21846     21845     21848     21847     21845     21848
     21849     21848     21850     21849     21848     21851     21850     21848     21851
     21852     21856     21857     21852     21856     21858     21852     21856     21859
     21853     21852     21854     21853     21852     21855     21853     21852     21856
     21854     21852     21855     21854     21852     21856     21855     21852     21856
     21856     21859     21860     21856     21859     21861     21856     21859     21866
     21857     21856     21858     21857     21856     21859     21858     21856     21859
     21859     21866     21862     21860     21859     21861     21860     21859     21866
     21861     21859     21866     21862     21865     21867     21863     21862     21864
     21863     21862     21865     21863     21862     21866     21864     21862     21865
     21864     21862     21866     21865     21862     21866     21865     21867     21868
     21865     21867     21869     21865     21867     21870     21867     21870     21871
     21867     21870     21872     21867     21870     21878     21868     21867     21869
     21868     21867     21870     21869     21867     21870     21870     21872     21873
     21870     21878     21879     21870     21878     21880     21870     21878     21881
     21871     21870     21872     21871     21870     21878     21872     21870     21878
     21872     21873     21874     21872     21873     21875     21873     21875     21876
     21873     21875     21877     21873     21875     21887     21874     21873     21875
     21875     21887     21888     21875     21887     21889     21875     21887     21890
     21876     21875     21877     21876     21875     21887     21877     21875     21887
     21878     21881     21882     21879     21878     21880     21879     21878     21881
     21880     21878     21881     21881     21882     21883     21881     21882     21884
     21882     21884     21885     21882     21884     21886     21882     21884     21934
     21883     21882     21884     21884     21934     21935     21884     21934     21936
     21884     21934     21937     21885     21884     21886     21885     21884     21934
     21886     21884     21934     21887     21890     21891     21887     21890     21892
     21887     21890     21893     21888     21887     21889     21888     21887     21890
     21889     21887     21890     21890     21893     21894     21890     21893     21895
     21890     21893     21896     21891     21890     21892     21891     21890     21893
     21892     21890     21893     21893     21896     21897     21893     21896     21898
     21893     21896     21899     21894     21893     21895     21894     21893     21896
     21895     21893     21896     21896     21899     21900     21896     21899     21901
     21896     21899     21902     21897     21896     21898     21897     21896     21899
     21898     21896     21899     21899     21902     21903     21899     21902     21904
     21899     21902     21905     21900     21899     21901     21900     21899     21902
     21901     21899     21902     21902     21905     21906     21902     21905     21907
     21903     21902     21904     21903     21902     21905     21904     21902     21905
     21905     21907     21908     21905     21907     21909     21906     21905     21907
     21907     21909     21910     21907     21909     21911     21907     21909     21912
     21908     21907     21909     21909     21912     21913     21909     21912     21914
     21909     21912     21915     21910     21909     21911     21910     21909     21912
     21911     21909     21912     21912     21915     21916     21912     21915     21917
     21912     21915     21918     21913     21912     21914     21913     21912     21915
     21914     21912     21915     21915     21918     21919     21915     21918     21920
     21915     21918     21921     21916     21915     21917     21916     21915     21918
     21917     21915     21918     21918     21921     21922     21918     21921     21923
     21918     21921     21924     21919     21918     21920     21919     21918     21921
     21920     21918     21921     21921     21924     21925     21921     21924     21926
     21921     21924     21927     21922     21921     21923     21922     21921     21924
     21923     21921     21924     21924     21927     21928     21924     21927     21929
     21924     21927     21930     21925     21924     21926     21925     21924     21927
     21926     21924     21927     21927     21930     21931     21927     21930     21932
     21927     21930     21933     21928     21927     21929     21928     21927     21930
     21929     21927     21930     21931     21930     21932     21931     21930     21933
     21932     21930     21933     21934     21937     21938     21934     21937     21939
     21934     21937     21940     21935     21934     21936     21935     21934     21937
     21936     21934     21937     21937     21940     21941     21937     21940     21942
     21937     21940     21943     21938     21937     21939     21938     21937     21940
     21939     21937     21940     21940     21943     21944     21940     21943     21945
     21940     21943     21946     21941     21940     21942     21941     21940     21943
     21942     21940     21943     21943     21946     21947     21943     21946     21948
     21943     21946     21949     21944     21943     21945     21944     21943     21946
     21945     21943     21946     21946     21949     21950     21946     21949     21951
     21946     21949     21952     21947     21946     21948     21947     21946     21949
     21948     21946     21949     21949     21952     21953     21949     21952     21954
     21949     21952     21955     21950     21949     21951     21950     21949     21952
     21951     21949     21952     21952     21955     21956     21952     21955     21957
     21952     21955     21958     21953     21952     21954     21953     21952     21955
     21954     21952     21955     21955     21958     21959     21955     21958     21960
     21955     21958     21961     21956     21955     21957     21956     21955     21958
     21957     21955     21958     21958     21961     21962     21958     21961     21963
     21958     21961     21964     21959     21958     21960     21959     21958     21961
     21960     21958     21961     21961     21964     21965     21961     21964     21966
     21961     21964     21967     21962     21961     21963     21962     21961     21964
     21963     21961     21964     21964     21967     21968     21964     21967     21969
     21964     21967     21970     21965     21964     21966     21965     21964     21967
     21966     21964     21967     21967     21970     21971     21967     21970     21972
     21967     21970     21973     21968     21967     21969     21968     21967     21970
     21969     21967     21970     21970     21973     21974     21970     21973     21975
     21970     21973     21976     21971     21970     21972     21971     21970     21973
     21972     21970     21973     21974     21973     21975     21974     21973     21976
     21975     21973     21976     21977     21981     21982     21977     21981     21983
     21977     21981     21984     21978     21977     21979     21978     21977     21980
     21978     21977     21981     21979     21977     21980     21979     21977     21981
     21980     21977     21981     21981     21984     21985     21981     21984     21986
     21981     21984     21991     21982     21981     21983     21982     21981     21984
     21983     21981     21984     21984     21991     21987     21985     21984     21986
     21985     21984     21991     21986     21984     21991     21987     21990     21992
     21988     21987     21989     21988     21987     21990     21988     21987     21991
     21989     21987     21990     21989     21987     21991     21990     21987     21991
     21990     21992     21993     21990     21992     21994     21990     21992     21995
     21992     21995     21996     21992     21995     21997     21992     21995     22003
     21993     21992     21994     21993     21992     21995     21994     21992     21995
     21995     21997     21998     21995     22003     22004     21995     22003     22005
     21995     22003     22006     21996     21995     21997     21996     21995     22003
     21997     21995     22003     21997     21998     21999     21997     21998     22000
     21998     22000     22001     21998     22000     22002     21998     22000     22012
     21999     21998     22000     22000     22012     22013     22000     22012     22014
     22000     22012     22015     22001     22000     22002     22001     22000     22012
     22002     22000     22012     22003     22006     22007     22004     22003     22005
     22004     22003     22006     22005     22003     22006     22006     22007     22008
     22006     22007     22009     22007     22009     22010     22007     22009     22011
     22007     22009     22053     22008     22007     22009     22009     22053     22054
     22009     22053     22055     22009     22053     22056     22010     22009     22011
     22010     22009     22053     22011     22009     22053     22012     22015     22016
     22012     22015     22017     22012     22015     22018     22013     22012     22014
     22013     22012     22015     22014     22012     22015     22015     22018     22019
     22015     22018     22020     22015     22018     22021     22016     22015     22017
     22016     22015     22018     22017     22015     22018     22018     22021     22022
     22018     22021     22023     22018     22021     22024     22019     22018     22020
     22019     22018     22021     22020     22018     22021     22021     22024     22025
     22021     22024     22026     22021     22024     22027     22022     22021     22023
     22022     22021     22024     22023     22021     22024     22024     22027     22028
     22024     22027     22029     22024     22027     22030     22025     22024     22026
     22025     22024     22027     22026     22024     22027     22027     22030     22031
     22027     22030     22032     22028     22027     22029     22028     22027     22030
     22029     22027     22030     22030     22032     22033     22030     22032     22034
     22031     22030     22032     22032     22034     22035     22032     22034     22036
     22032     22034     22037     22033     22032     22034     22034     22037     22038
     22034     22037     22039     22034     22037     22040     22035     22034     22036
     22035     22034     22037     22036     22034     22037     22037     22040     22041
     22037     22040     22042     22037     22040     22043     22038     22037     22039
     22038     22037     22040     22039     22037     22040     22040     22043     22044
     22040     22043     22045     22040     22043     22046     22041     22040     22042
     22041     22040     22043     22042     22040     22043     22043     22046     22047
     22043     22046     22048     22043     22046     22049     22044     22043     22045
     22044     22043     22046     22045     22043     22046     22046     22049     22050
     22046     22049     22051     22046     22049     22052     22047     22046     22048
     22047     22046     22049     22048     22046     22049     22050     22049     22051
     22050     22049     22052     22051     22049     22052     22053     22056     22057
     22053     22056     22058     22053     22056     22059     22054     22053     22055
     22054     22053     22056     22055     22053     22056     22056     22059     22060
     22056     22059     22061     22056     22059     22062     22057     22056     22058
     22057     22056     22059     22058     22056     22059     22059     22062     22063
     22059     22062     22064     22059     22062     22065     22060     22059     22061
     22060     22059     22062     22061     22059     22062     22062     22065     22066
     22062     22065     22067     22062     22065     22068     22063     22062     22064
     22063     22062     22065     22064     22062     22065     22065     22068     22069
     22065     22068     22070     22065     22068     22071     22066     22065     22067
     22066     22065     22068     22067     22065     22068     22068     22071     22072
     22068     22071     22073     22069     22068     22070     22069     22068     22071
     22070     22068     22071     22071     22073     22074     22071     22073     22075
     22072     22071     22073     22073     22075     22076     22073     22075     22077
     22073     22075     22078     22074     22073     22075     22075     22078     22079
     22075     22078     22080     22075     22078     22081     22076     22075     22077
     22076     22075     22078     22077     22075     22078     22078     22081     22082
     22078     22081     22083     22078     22081     22084     22079     22078     22080
     22079     22078     22081     22080     22078     22081     22081     22084     22085
     22081     22084     22086     22081     22084     22087     22082     22081     22083
     22082     22081     22084     22083     22081     22084     22084     22087     22088
     22084     22087     22089     22084     22087     22090     22085     22084     22086
     22085     22084     22087     22086     22084     22087     22087     22090     22091
     22087     22090     22092     22087     22090     22093     22088     22087     22089
     22088     22087     22090     22089     22087     22090     22090     22093     22094
     22090     22093     22095     22090     22093     22096     22091     22090     22092
     22091     22090     22093     22092     22090     22093     22093     22096     22097
     22093     22096     22098     22093     22096     22099     22094     22093     22095
     22094     22093     22096     22095     22093     22096     22097     22096     22098
     22097     22096     22099     22098     22096     22099     22100     22104     22105
     22100     22104     22106     22100     22104     22107     22101     22100     22102
     22101     22100     22103     22101     22100     22104     22102     22100     22103
     22102     22100     22104     22103     22100     22104     22104     22107     22108
     22104     22107     22109     22104     22107     22114     22105     22104     22106
     22105     22104     22107     22106     22104     22107     22107     22114     22110
     22108     22107     22109     22108     22107     22114     22109     22107     22114
     22110     22113     22115     22111     22110     22112     22111     22110     22113
     22111     22110     22114     22112     22110     22113     22112     22110     22114
     22113     22110     22114     22113     22115     22116     22113     22115     22117
     22113     22115     22118     22115     22118     22119     22115     22118     22120
     22115     22118     22126     22116     22115     22117     22116     22115     22118
     22117     22115     22118     22118     22120     22121     22118     22126     22127
     22118     22126     22128     22118     22126     22129     22119     22118     22120
     22119     22118     22126     22120     22118     22126     22120     22121     22122
     22120     22121     22123     22121     22123     22124     22121     22123     22125
     22121     22123     22135     22122     22121     22123     22123     22135     22136
     22123     22135     22137     22123     22135     22138     22124     22123     22125
     22124     22123     22135     22125     22123     22135     22126     22129     22130
     22127     22126     22128     22127     22126     22129     22128     22126     22129
     22129     22130     22131     22129     22130     22132     22130     22132     22133
     22130     22132     22134     22130     22132     22179     22131     22130     22132
     22132     22179     22180     22132     22179     22181     22132     22179     22182
     22133     22132     22134     22133     22132     22179     22134     22132     22179
     22135     22138     22139     22135     22138     22140     22135     22138     22141
     22136     22135     22137     22136     22135     22138     22137     22135     22138
     22138     22141     22142     22138     22141     22143     22138     22141     22144
     22139     22138     22140     22139     22138     22141     22140     22138     22141
     22141     22144     22145     22141     22144     22146     22141     22144     22147
     22142     22141     22143     22142     22141     22144     22143     22141     22144
     22144     22147     22148     22144     22147     22149     22144     22147     22150
     22145     22144     22146     22145     22144     22147     22146     22144     22147
     22147     22150     22151     22147     22150     22152     22147     22150     22153
     22148     22147     22149     22148     22147     22150     22149     22147     22150
     22150     22153     22154     22150     22153     22155     22150     22153     22158
     22151     22150     22152     22151     22150     22153     22152     22150     22153
     22153     22155     22156     22153     22155     22157     22153     22155     22158
     22153     22158     22155     22153     22158     22159     22153     22158     22160
     22154     22153     22155     22154     22153     22158     22155     22153     22158
     22155     22158     22159     22155     22158     22160     22156     22155     22157
     22156     22155     22158     22157     22155     22158     22158     22160     22161
     22158     22160     22162     22158     22160     22163     22159     22158     22160
     22160     22163     22164     22160     22163     22165     22160     22163     22166
     22161     22160     22162     22161     22160     22163     22162     22160     22163
     22163     22166     22167     22163     22166     22168     22163     22166     22169
     22164     22163     22165     22164     22163     22166     22165     22163     22166
     22166     22169     22170     22166     22169     22171     22166     22169     22172
     22167     22166     22168     22167     22166     22169     22168     22166     22169
     22169     22172     22173     22169     22172     22174     22169     22172     22175
     22170     22169     22171     22170     22169     22172     22171     22169     22172
     22172     22175     22176     22172     22175     22177     22172     22175     22178
     22173     22172     22174     22173     22172     22175     22174     22172     22175
     22176     22175     22177     22176     22175     22178     22177     22175     22178
     22179     22182     22183     22179     22182     22184     22179     22182     22185
     22180     22179     22181     22180     22179     22182     22181     22179     22182
     22182     22185     22186     22182     22185     22187     22182     22185     22188
     22183     22182     22184     22183     22182     22185     22184     22182     22185
     22185     22188     22189     22185     22188     22190     22185     22188     22191
     22186     22185     22187     22186     22185     22188     22187     22185     22188
     22188     22191     22192     22188     22191     22193     22188     22191     22194
     22189     22188     22190     22189     22188     22191     22190     22188     22191
     22191     22194     22195     22191     22194     22196     22191     22194     22197
     22192     22191     22193     22192     22191     22194     22193     22191     22194
     22194     22197     22198     22194     22197     22199     22194     22197     22200
     22195     22194     22196     22195     22194     22197     22196     22194     22197
     22197     22200     22201     22197     22200     22202     22197     22200     22203
     22198     22197     22199     22198     22197     22200     22199     22197     22200
     22200     22203     22204     22200     22203     22205     22200     22203     22206
     22201     22200     22202     22201     22200     22203     22202     22200     22203
     22203     22206     22207     22203     22206     22208     22203     22206     22209
     22204     22203     22205     22204     22203     22206     22205     22203     22206
     22206     22209     22210     22206     22209     22211     22206     22209     22212
     22207     22206     22208     22207     22206     22209     22208     22206     22209
     22209     22212     22213     22209     22212     22214     22209     22212     22215
     22210     22209     22211     22210     22209     22212     22211     22209     22212
     22212     22215     22216     22212     22215     22217     22212     22215     22218
     22213     22212     22214     22213     22212     22215     22214     22212     22215
     22216     22215     22217     22216     22215     22218     22217     22215     22218
     22219     22223     22224     22219     22223     22225     22219     22223     22226
     22220     22219     22221     22220     22219     22222     22220     22219     22223
     22221     22219     22222     22221     22219     22223     22222     22219     22223
     22223     22226     22227     22223     22226     22228     22223     22226     22233
     22224     22223     22225     22224     22223     22226     22225     22223     22226
     22226     22233     22229     22227     22226     22228     22227     22226     22233
     22228     22226     22233     22229     22232     22234     22230     22229     22231
     22230     22229     22232     22230     22229     22233     22231     22229     22232
     22231     22229     22233     22232     22229     22233     22232     22234     22235
     22232     22234     22236     22232     22234     22237     22234     22237     22238
     22234     22237     22239     22234     22237     22245     22235     22234     22236
     22235     22234     22237     22236     22234     22237     22237     22239     22240
     22237     22245     22246     22237     22245     22247     22237     22245     22248
     22238     22237     22239     22238     22237     22245     22239     22237     22245
     22239     22240     22241     22239     22240     22242     22240     22242     22243
     22240     22242     22244     22240     22242     22254     22241     22240     22242
     22242     22254     22255     22242     22254     22256     22242     22254     22257
     22243     22242     22244     22243     22242     22254     22244     22242     22254
     22245     22248     22249     22246     22245     22247     22246     22245     22248
     22247     22245     22248     22248     22249     22250     22248     22249     22251
     22249     22251     22252     22249     22251     22253     22249     22251     22298
     22250     22249     22251     22251     22298     22299     22251     22298     22300
     22251     22298     22301     22252     22251     22253     22252     22251     22298
     22253     22251     22298     22254     22257     22258     22254     22257     22259
     22254     22257     22260     22255     22254     22256     22255     22254     22257
     22256     22254     22257     22257     22260     22261     22257     22260     22262
     22257     22260     22263     22258     22257     22259     22258     22257     22260
     22259     22257     22260     22260     22263     22264     22260     22263     22265
     22260     22263     22266     22261     22260     22262     22261     22260     22263
     22262     22260     22263     22263     22266     22267     22263     22266     22268
     22263     22266     22269     22264     22263     22265     22264     22263     22266
     22265     22263     22266     22266     22269     22270     22266     22269     22271
     22266     22269     22272     22267     22266     22268     22267     22266     22269
     22268     22266     22269     22269     22272     22273     22269     22272     22274
     22269     22272     22277     22270     22269     22271     22270     22269     22272
     22271     22269     22272     22272     22274     22275     22272     22274     22276
     22272     22274     22277     22272     22277     22274     22272     22277     22278
     22272     22277     22279     22273     22272     22274     22273     22272     22277
     22274     22272     22277     22274     22277     22278     22274     22277     22279
     22275     22274     22276     22275     22274     22277     22276     22274     22277
     22277     22279     22280     22277     22279     22281     22277     22279     22282
     22278     22277     22279     22279     22282     22283     22279     22282     22284
     22279     22282     22285     22280     22279     22281     22280     22279     22282
     22281     22279     22282     22282     22285     22286     22282     22285     22287
     22282     22285     22288     22283     22282     22284     22283     22282     22285
     22284     22282     22285     22285     22288     22289     22285     22288     22290
     22285     22288     22291     22286     22285     22287     22286     22285     22288
     22287     22285     22288     22288     22291     22292     22288     22291     22293
     22288     22291     22294     22289     22288     22290     22289     22288     22291
     22290     22288     22291     22291     22294     22295     22291     22294     22296
     22291     22294     22297     22292     22291     22293     22292     22291     22294
     22293     22291     22294     22295     22294     22296     22295     22294     22297
     22296     22294     22297     22298     22301     22302     22298     22301     22303
     22298     22301     22304     22299     22298     22300     22299     22298     22301
     22300     22298     22301     22301     22304     22305     22301     22304     22306
     22301     22304     22307     22302     22301     22303     22302     22301     22304
     22303     22301     22304     22304     22307     22308     22304     22307     22309
     22304     22307     22310     22305     22304     22306     22305     22304     22307
     22306     22304     22307     22307     22310     22311     22307     22310     22312
     22307     22310     22313     22308     22307     22309     22308     22307     22310
     22309     22307     22310     22310     22313     22314     22310     22313     22315
     22310     22313     22316     22311     22310     22312     22311     22310     22313
     22312     22310     22313     22313     22316     22317     22313     22316     22318
     22313     22316     22319     22314     22313     22315     22314     22313     22316
     22315     22313     22316     22316     22319     22320     22316     22319     22321
     22316     22319     22322     22317     22316     22318     22317     22316     22319
     22318     22316     22319     22319     22322     22323     22319     22322     22324
     22319     22322     22325     22320     22319     22321     22320     22319     22322
     22321     22319     22322     22322     22325     22326     22322     22325     22327
     22322     22325     22328     22323     22322     22324     22323     22322     22325
     22324     22322     22325     22325     22328     22329     22325     22328     22330
     22325     22328     22331     22326     22325     22327     22326     22325     22328
     22327     22325     22328     22328     22331     22332     22328     22331     22333
     22328     22331     22334     22329     22328     22330     22329     22328     22331
     22330     22328     22331     22331     22334     22335     22331     22334     22336
     22331     22334     22337     22332     22331     22333     22332     22331     22334
     22333     22331     22334     22335     22334     22336     22335     22334     22337
     22336     22334     22337     22338     22342     22343     22338     22342     22344
     22338     22342     22345     22339     22338     22340     22339     22338     22341
     22339     22338     22342     22340     22338     22341     22340     22338     22342
     22341     22338     22342     22342     22345     22346     22342     22345     22347
     22342     22345     22352     22343     22342     22344     22343     22342     22345
     22344     22342     22345     22345     22352     22348     22346     22345     22347
     22346     22345     22352     22347     22345     22352     22348     22351     22353
     22349     22348     22350     22349     22348     22351     22349     22348     22352
     22350     22348     22351     22350     22348     22352     22351     22348     22352
     22351     22353     22354     22351     22353     22355     22351     22353     22356
     22353     22356     22357     22353     22356     22358     22353     22356     22364
     22354     22353     22355     22354     22353     22356     22355     22353     22356
     22356     22358     22359     22356     22364     22365     22356     22364     22366
     22356     22364     22367     22357     22356     22358     22357     22356     22364
     22358     22356     22364     22358     22359     22360     22358     22359     22361
     22359     22361     22362     22359     22361     22363     22359     22361     22373
     22360     22359     22361     22361     22373     22374     22361     22373     22375
     22361     22373     22376     22362     22361     22363     22362     22361     22373
     22363     22361     22373     22364     22367     22368     22365     22364     22366
     22365     22364     22367     22366     22364     22367     22367     22368     22369
     22367     22368     22370     22368     22370     22371     22368     22370     22372
     22368     22370     22417     22369     22368     22370     22370     22417     22418
     22370     22417     22419     22370     22417     22420     22371     22370     22372
     22371     22370     22417     22372     22370     22417     22373     22376     22377
     22373     22376     22378     22373     22376     22379     22374     22373     22375
     22374     22373     22376     22375     22373     22376     22376     22379     22380
     22376     22379     22381     22376     22379     22382     22377     22376     22378
     22377     22376     22379     22378     22376     22379     22379     22382     22383
     22379     22382     22384     22379     22382     22385     22380     22379     22381
     22380     22379     22382     22381     22379     22382     22382     22385     22386
     22382     22385     22387     22382     22385     22388     22383     22382     22384
     22383     22382     22385     22384     22382     22385     22385     22388     22389
     22385     22388     22390     22385     22388     22391     22386     22385     22387
     22386     22385     22388     22387     22385     22388     22388     22391     22392
     22388     22391     22393     22388     22391     22396     22389     22388     22390
     22389     22388     22391     22390     22388     22391     22391     22393     22394
     22391     22393     22395     22391     22393     22396     22391     22396     22393
     22391     22396     22397     22391     22396     22398     22392     22391     22393
     22392     22391     22396     22393     22391     22396     22393     22396     22397
     22393     22396     22398     22394     22393     22395     22394     22393     22396
     22395     22393     22396     22396     22398     22399     22396     22398     22400
     22396     22398     22401     22397     22396     22398     22398     22401     22402
     22398     22401     22403     22398     22401     22404     22399     22398     22400
     22399     22398     22401     22400     22398     22401     22401     22404     22405
     22401     22404     22406     22401     22404     22407     22402     22401     22403
     22402     22401     22404     22403     22401     22404     22404     22407     22408
     22404     22407     22409     22404     22407     22410     22405     22404     22406
     22405     22404     22407     22406     22404     22407     22407     22410     22411
     22407     22410     22412     22407     22410     22413     22408     22407     22409
     22408     22407     22410     22409     22407     22410     22410     22413     22414
     22410     22413     22415     22410     22413     22416     22411     22410     22412
     22411     22410     22413     22412     22410     22413     22414     22413     22415
     22414     22413     22416     22415     22413     22416     22417     22420     22421
     22417     22420     22422     22417     22420     22423     22418     22417     22419
     22418     22417     22420     22419     22417     22420     22420     22423     22424
     22420     22423     22425     22420     22423     22426     22421     22420     22422
     22421     22420     22423     22422     22420     22423     22423     22426     22427
     22423     22426     22428     22423     22426     22429     22424     22423     22425
     22424     22423     22426     22425     22423     22426     22426     22429     22430
     22426     22429     22431     22426     22429     22432     22427     22426     22428
     22427     22426     22429     22428     22426     22429     22429     22432     22433
     22429     22432     22434     22429     22432     22435     22430     22429     22431
     22430     22429     22432     22431     22429     22432     22432     22435     22436
     22432     22435     22437     22432     22435     22438     22433     22432     22434
     22433     22432     22435     22434     22432     22435     22435     22438     22439
     22435     22438     22440     22435     22438     22441     22436     22435     22437
     22436     22435     22438     22437     22435     22438     22438     22441     22442
     22438     22441     22443     22438     22441     22444     22439     22438     22440
     22439     22438     22441     22440     22438     22441     22441     22444     22445
     22441     22444     22446     22441     22444     22447     22442     22441     22443
     22442     22441     22444     22443     22441     22444     22444     22447     22448
     22444     22447     22449     22444     22447     22450     22445     22444     22446
     22445     22444     22447     22446     22444     22447     22447     22450     22451
     22447     22450     22452     22447     22450     22453     22448     22447     22449
     22448     22447     22450     22449     22447     22450     22450     22453     22454
     22450     22453     22455     22450     22453     22456     22451     22450     22452
     22451     22450     22453     22452     22450     22453     22453     22456     22457
     22453     22456     22458     22453     22456     22459     22454     22453     22455
     22454     22453     22456     22455     22453     22456     22457     22456     22458
     22457     22456     22459     22458     22456     22459     22460     22463     22464
     22460     22465     22466     22460     22465     22467     22460     22465     22469
     22461     22460     22462     22461     22460     22463     22461     22460     22465
     22462     22460     22463     22462     22460     22465     22463     22460     22465
     22465     22467     22468     22465     22469     22470     22465     22469     22471
     22465     22469     22476     22466     22465     22467     22466     22465     22469
     22467     22465     22469     22469     22476     22472     22470     22469     22471
     22470     22469     22476     22471     22469     22476     22472     22475     22477
     22473     22472     22474     22473     22472     22475     22473     22472     22476
     22474     22472     22475     22474     22472     22476     22475     22472     22476
     22475     22477     22478     22475     22477     22479     22475     22477     22480
     22477     22480     22481     22477     22480     22482     22477     22480     22488
     22478     22477     22479     22478     22477     22480     22479     22477     22480
     22480     22482     22483     22480     22488     22489     22480     22488     22490
     22480     22488     22491     22481     22480     22482     22481     22480     22488
     22482     22480     22488     22482     22483     22484     22482     22483     22485
     22483     22485     22486     22483     22485     22487     22483     22485     22497
     22484     22483     22485     22485     22497     22498     22485     22497     22499
     22485     22497     22500     22486     22485     22487     22486     22485     22497
     22487     22485     22497     22488     22491     22492     22489     22488     22490
     22489     22488     22491     22490     22488     22491     22491     22492     22493
     22491     22492     22494     22492     22494     22495     22492     22494     22496
     22492     22494     22541     22493     22492     22494     22494     22541     22542
     22494     22541     22543     22494     22541     22544     22495     22494     22496
     22495     22494     22541     22496     22494     22541     22497     22500     22501
     22497     22500     22502     22497     22500     22503     22498     22497     22499
     22498     22497     22500     22499     22497     22500     22500     22503     22504
     22500     22503     22505     22500     22503     22506     22501     22500     22502
     22501     22500     22503     22502     22500     22503     22503     22506     22507
     22503     22506     22508     22503     22506     22509     22504     22503     22505
     22504     22503     22506     22505     22503     22506     22506     22509     22510
     22506     22509     22511     22506     22509     22512     22507     22506     22508
     22507     22506     22509     22508     22506     22509     22509     22512     22513
     22509     22512     22514     22509     22512     22515     22510     22509     22511
     22510     22509     22512     22511     22509     22512     22512     22515     22516
     22512     22515     22517     22512     22515     22520     22513     22512     22514
     22513     22512     22515     22514     22512     22515     22515     22517     22518
     22515     22517     22519     22515     22517     22520     22515     22520     22517
     22515     22520     22521     22515     22520     22522     22516     22515     22517
     22516     22515     22520     22517     22515     22520     22517     22520     22521
     22517     22520     22522     22518     22517     22519     22518     22517     22520
     22519     22517     22520     22520     22522     22523     22520     22522     22524
     22520     22522     22525     22521     22520     22522     22522     22525     22526
     22522     22525     22527     22522     22525     22528     22523     22522     22524
     22523     22522     22525     22524     22522     22525     22525     22528     22529
     22525     22528     22530     22525     22528     22531     22526     22525     22527
     22526     22525     22528     22527     22525     22528     22528     22531     22532
     22528     22531     22533     22528     22531     22534     22529     22528     22530
     22529     22528     22531     22530     22528     22531     22531     22534     22535
     22531     22534     22536     22531     22534     22537     22532     22531     22533
     22532     22531     22534     22533     22531     22534     22534     22537     22538
     22534     22537     22539     22534     22537     22540     22535     22534     22536
     22535     22534     22537     22536     22534     22537     22538     22537     22539
     22538     22537     22540     22539     22537     22540     22541     22544     22545
     22541     22544     22546     22541     22544     22547     22542     22541     22543
     22542     22541     22544     22543     22541     22544     22544     22547     22548
     22544     22547     22549     22544     22547     22550     22545     22544     22546
     22545     22544     22547     22546     22544     22547     22547     22550     22551
     22547     22550     22552     22547     22550     22553     22548     22547     22549
     22548     22547     22550     22549     22547     22550     22550     22553     22554
     22550     22553     22555     22550     22553     22556     22551     22550     22552
     22551     22550     22553     22552     22550     22553     22553     22556     22557
     22553     22556     22558     22553     22556     22559     22554     22553     22555
     22554     22553     22556     22555     22553     22556     22556     22559     22560
     22556     22559     22561     22556     22559     22562     22557     22556     22558
     22557     22556     22559     22558     22556     22559     22559     22562     22563
     22559     22562     22564     22559     22562     22565     22560     22559     22561
     22560     22559     22562     22561     22559     22562     22562     22565     22566
     22562     22565     22567     22562     22565     22568     22563     22562     22564
     22563     22562     22565     22564     22562     22565     22565     22568     22569
     22565     22568     22570     22565     22568     22571     22566     22565     22567
     22566     22565     22568     22567     22565     22568     22568     22571     22572
     22568     22571     22573     22568     22571     22574     22569     22568     22570
     22569     22568     22571     22570     22568     22571     22571     22574     22575
     22571     22574     22576     22571     22574     22577     22572     22571     22573
     22572     22571     22574     22573     22571     22574     22574     22577     22578
     22574     22577     22579     22574     22577     22580     22575     22574     22576
     22575     22574     22577     22576     22574     22577     22577     22580     22581
     22577     22580     22582     22577     22580     22583     22578     22577     22579
     22578     22577     22580     22579     22577     22580     22581     22580     22582
     22581     22580     22583     22582     22580     22583     22584     22587     22588
     22584     22589     22590     22584     22589     22591     22584     22589     22593
     22585     22584     22586     22585     22584     22587     22585     22584     22589
     22586     22584     22587     22586     22584     22589     22587     22584     22589
     22589     22591     22592     22589     22593     22594     22589     22593     22595
     22589     22593     22600     22590     22589     22591     22590     22589     22593
     22591     22589     22593     22593     22600     22596     22594     22593     22595
     22594     22593     22600     22595     22593     22600     22596     22599     22601
     22597     22596     22598     22597     22596     22599     22597     22596     22600
     22598     22596     22599     22598     22596     22600     22599     22596     22600
     22599     22601     22602     22599     22601     22603     22599     22601     22604
     22601     22604     22605     22601     22604     22606     22601     22604     22612
     22602     22601     22603     22602     22601     22604     22603     22601     22604
     22604     22606     22607     22604     22612     22613     22604     22612     22614
     22604     22612     22615     22605     22604     22606     22605     22604     22612
     22606     22604     22612     22606     22607     22608     22606     22607     22609
     22607     22609     22610     22607     22609     22611     22607     22609     22621
     22608     22607     22609     22609     22621     22622     22609     22621     22623
     22609     22621     22624     22610     22609     22611     22610     22609     22621
     22611     22609     22621     22612     22615     22616     22613     22612     22614
     22613     22612     22615     22614     22612     22615     22615     22616     22617
     22615     22616     22618     22616     22618     22619     22616     22618     22620
     22616     22618     22665     22617     22616     22618     22618     22665     22666
     22618     22665     22667     22618     22665     22668     22619     22618     22620
     22619     22618     22665     22620     22618     22665     22621     22624     22625
     22621     22624     22626     22621     22624     22627     22622     22621     22623
     22622     22621     22624     22623     22621     22624     22624     22627     22628
     22624     22627     22629     22624     22627     22630     22625     22624     22626
     22625     22624     22627     22626     22624     22627     22627     22630     22631
     22627     22630     22632     22627     22630     22633     22628     22627     22629
     22628     22627     22630     22629     22627     22630     22630     22633     22634
     22630     22633     22635     22630     22633     22636     22631     22630     22632
     22631     22630     22633     22632     22630     22633     22633     22636     22637
     22633     22636     22638     22633     22636     22639     22634     22633     22635
     22634     22633     22636     22635     22633     22636     22636     22639     22640
     22636     22639     22641     22636     22639     22644     22637     22636     22638
     22637     22636     22639     22638     22636     22639     22639     22641     22642
     22639     22641     22643     22639     22641     22644     22639     22644     22641
     22639     22644     22645     22639     22644     22646     22640     22639     22641
     22640     22639     22644     22641     22639     22644     22641     22644     22645
     22641     22644     22646     22642     22641     22643     22642     22641     22644
     22643     22641     22644     22644     22646     22647     22644     22646     22648
     22644     22646     22649     22645     22644     22646     22646     22649     22650
     22646     22649     22651     22646     22649     22652     22647     22646     22648
     22647     22646     22649     22648     22646     22649     22649     22652     22653
     22649     22652     22654     22649     22652     22655     22650     22649     22651
     22650     22649     22652     22651     22649     22652     22652     22655     22656
     22652     22655     22657     22652     22655     22658     22653     22652     22654
     22653     22652     22655     22654     22652     22655     22655     22658     22659
     22655     22658     22660     22655     22658     22661     22656     22655     22657
     22656     22655     22658     22657     22655     22658     22658     22661     22662
     22658     22661     22663     22658     22661     22664     22659     22658     22660
     22659     22658     22661     22660     22658     22661     22662     22661     22663
     22662     22661     22664     22663     22661     22664     22665     22668     22669
     22665     22668     22670     22665     22668     22671     22666     22665     22667
     22666     22665     22668     22667     22665     22668     22668     22671     22672
     22668     22671     22673     22668     22671     22674     22669     22668     22670
     22669     22668     22671     22670     22668     22671     22671     22674     22675
     22671     22674     22676     22671     22674     22677     22672     22671     22673
     22672     22671     22674     22673     22671     22674     22674     22677     22678
     22674     22677     22679     22674     22677     22680     22675     22674     22676
     22675     22674     22677     22676     22674     22677     22677     22680     22681
     22677     22680     22682     22677     22680     22683     22678     22677     22679
     22678     22677     22680     22679     22677     22680     22680     22683     22684
     22680     22683     22685     22680     22683     22686     22681     22680     22682
     22681     22680     22683     22682     22680     22683     22683     22686     22687
     22683     22686     22688     22683     22686     22689     22684     22683     22685
     22684     22683     22686     22685     22683     22686     22686     22689     22690
     22686     22689     22691     22686     22689     22692     22687     22686     22688
     22687     22686     22689     22688     22686     22689     22689     22692     22693
     22689     22692     22694     22689     22692     22695     22690     22689     22691
     22690     22689     22692     22691     22689     22692     22692     22695     22696
     22692     22695     22697     22692     22695     22698     22693     22692     22694
     22693     22692     22695     22694     22692     22695     22695     22698     22699
     22695     22698     22700     22695     22698     22701     22696     22695     22697
     22696     22695     22698     22697     22695     22698     22698     22701     22702
     22698     22701     22703     22698     22701     22704     22699     22698     22700
     22699     22698     22701     22700     22698     22701     22701     22704     22705
     22701     22704     22706     22701     22704     22707     22702     22701     22703
     22702     22701     22704     22703     22701     22704     22705     22704     22706
     22705     22704     22707     22706     22704     22707     22708     22712     22713
     22708     22712     22714     22708     22712     22715     22709     22708     22710
     22709     22708     22711     22709     22708     22712     22710     22708     22711
     22710     22708     22712     22711     22708     22712     22712     22715     22716
     22712     22715     22717     22712     22715     22722     22713     22712     22714
     22713     22712     22715     22714     22712     22715     22715     22722     22718
     22716     22715     22717     22716     22715     22722     22717     22715     22722
     22718     22721     22723     22719     22718     22720     22719     22718     22721
     22719     22718     22722     22720     22718     22721     22720     22718     22722
     22721     22718     22722     22721     22723     22724     22721     22723     22725
     22721     22723     22726     22723     22726     22727     22723     22726     22728
     22723     22726     22734     22724     22723     22725     22724     22723     22726
     22725     22723     22726     22726     22728     22729     22726     22734     22735
     22726     22734     22736     22726     22734     22737     22727     22726     22728
     22727     22726     22734     22728     22726     22734     22728     22729     22730
     22728     22729     22731     22729     22731     22732     22729     22731     22733
     22729     22731     22743     22730     22729     22731     22731     22743     22744
     22731     22743     22745     22731     22743     22746     22732     22731     22733
     22732     22731     22743     22733     22731     22743     22734     22737     22738
     22735     22734     22736     22735     22734     22737     22736     22734     22737
     22737     22738     22739     22737     22738     22740     22738     22740     22741
     22738     22740     22742     22738     22740     22784     22739     22738     22740
     22740     22784     22785     22740     22784     22786     22740     22784     22787
     22741     22740     22742     22741     22740     22784     22742     22740     22784
     22743     22746     22747     22743     22746     22748     22743     22746     22749
     22744     22743     22745     22744     22743     22746     22745     22743     22746
     22746     22749     22750     22746     22749     22751     22746     22749     22752
     22747     22746     22748     22747     22746     22749     22748     22746     22749
     22749     22752     22753     22749     22752     22754     22749     22752     22755
     22750     22749     22751     22750     22749     22752     22751     22749     22752
     22752     22755     22756     22752     22755     22757     22752     22755     22758
     22753     22752     22754     22753     22752     22755     22754     22752     22755
     22755     22758     22759     22755     22758     22760     22755     22758     22761
     22756     22755     22757     22756     22755     22758     22757     22755     22758
     22758     22761     22762     22758     22761     22763     22759     22758     22760
     22759     22758     22761     22760     22758     22761     22761     22763     22764
     22761     22763     22765     22762     22761     22763     22763     22765     22766
     22763     22765     22767     22763     22765     22768     22764     22763     22765
     22765     22768     22769     22765     22768     22770     22765     22768     22771
     22766     22765     22767     22766     22765     22768     22767     22765     22768
     22768     22771     22772     22768     22771     22773     22768     22771     22774
     22769     22768     22770     22769     22768     22771     22770     22768     22771
     22771     22774     22775     22771     22774     22776     22771     22774     22777
     22772     22771     22773     22772     22771     22774     22773     22771     22774
     22774     22777     22778     22774     22777     22779     22774     22777     22780
     22775     22774     22776     22775     22774     22777     22776     22774     22777
     22777     22780     22781     22777     22780     22782     22777     22780     22783
     22778     22777     22779     22778     22777     22780     22779     22777     22780
     22781     22780     22782     22781     22780     22783     22782     22780     22783
     22784     22787     22788     22784     22787     22789     22784     22787     22790
     22785     22784     22786     22785     22784     22787     22786     22784     22787
     22787     22790     22791     22787     22790     22792     22787     22790     22793
     22788     22787     22789     22788     22787     22790     22789     22787     22790
     22790     22793     22794     22790     22793     22795     22790     22793     22796
     22791     22790     22792     22791     22790     22793     22792     22790     22793
     22793     22796     22797     22793     22796     22798     22793     22796     22799
     22794     22793     22795     22794     22793     22796     22795     22793     22796
     22796     22799     22800     22796     22799     22801     22796     22799     22802
     22797     22796     22798     22797     22796     22799     22798     22796     22799
     22799     22802     22803     22799     22802     22804     22800     22799     22801
     22800     22799     22802     22801     22799     22802     22802     22804     22805
     22802     22804     22806     22803     22802     22804     22804     22806     22807
     22804     22806     22808     22804     22806     22809     22805     22804     22806
     22806     22809     22810     22806     22809     22811     22806     22809     22812
     22807     22806     22808     22807     22806     22809     22808     22806     22809
     22809     22812     22813     22809     22812     22814     22809     22812     22815
     22810     22809     22811     22810     22809     22812     22811     22809     22812
     22812     22815     22816     22812     22815     22817     22812     22815     22818
     22813     22812     22814     22813     22812     22815     22814     22812     22815
     22815     22818     22819     22815     22818     22820     22815     22818     22821
     22816     22815     22817     22816     22815     22818     22817     22815     22818
     22818     22821     22822     22818     22821     22823     22818     22821     22824
     22819     22818     22820     22819     22818     22821     22820     22818     22821
     22821     22824     22825     22821     22824     22826     22821     22824     22827
     22822     22821     22823     22822     22821     22824     22823     22821     22824
     22824     22827     22828     22824     22827     22829     22824     22827     22830
     22825     22824     22826     22825     22824     22827     22826     22824     22827
     22828     22827     22829     22828     22827     22830     22829     22827     22830
     22831     22835     22836     22831     22835     22837     22831     22835     22838
     22832     22831     22833     22832     22831     22834     22832     22831     22835
     22833     22831     22834     22833     22831     22835     22834     22831     22835
     22835     22838     22839     22835     22838     22840     22835     22838     22845
     22836     22835     22837     22836     22835     22838     22837     22835     22838
     22838     22845     22841     22839     22838     22840     22839     22838     22845
     22840     22838     22845     22841     22844     22846     22842     22841     22843
     22842     22841     22844     22842     22841     22845     22843     22841     22844
     22843     22841     22845     22844     22841     22845     22844     22846     22847
     22844     22846     22848     22844     22846     22849     22846     22849     22850
     22846     22849     22851     22846     22849     22857     22847     22846     22848
     22847     22846     22849     22848     22846     22849     22849     22851     22852
     22849     22857     22858     22849     22857     22859     22849     22857     22860
     22850     22849     22851     22850     22849     22857     22851     22849     22857
     22851     22852     22853     22851     22852     22854     22852     22854     22855
     22852     22854     22856     22852     22854     22866     22853     22852     22854
     22854     22866     22867     22854     22866     22868     22854     22866     22869
     22855     22854     22856     22855     22854     22866     22856     22854     22866
     22857     22860     22861     22858     22857     22859     22858     22857     22860
     22859     22857     22860     22860     22861     22862     22860     22861     22863
     22861     22863     22864     22861     22863     22865     22861     22863     22913
     22862     22861     22863     22863     22913     22914     22863     22913     22915
     22863     22913     22916     22864     22863     22865     22864     22863     22913
     22865     22863     22913     22866     22869     22870     22866     22869     22871
     22866     22869     22872     22867     22866     22868     22867     22866     22869
     22868     22866     22869     22869     22872     22873     22869     22872     22874
     22869     22872     22875     22870     22869     22871     22870     22869     22872
     22871     22869     22872     22872     22875     22876     22872     22875     22877
     22872     22875     22878     22873     22872     22874     22873     22872     22875
     22874     22872     22875     22875     22878     22879     22875     22878     22880
     22875     22878     22881     22876     22875     22877     22876     22875     22878
     22877     22875     22878     22878     22881     22882     22878     22881     22883
     22878     22881     22884     22879     22878     22880     22879     22878     22881
     22880     22878     22881     22881     22884     22885     22881     22884     22886
     22882     22881     22883     22882     22881     22884     22883     22881     22884
     22884     22886     22887     22884     22886     22888     22885     22884     22886
     22886     22888     22889     22886     22888     22890     22886     22888     22891
     22887     22886     22888     22888     22891     22892     22888     22891     22893
     22888     22891     22894     22889     22888     22890     22889     22888     22891
     22890     22888     22891     22891     22894     22895     22891     22894     22896
     22891     22894     22897     22892     22891     22893     22892     22891     22894
     22893     22891     22894     22894     22897     22898     22894     22897     22899
     22894     22897     22900     22895     22894     22896     22895     22894     22897
     22896     22894     22897     22897     22900     22901     22897     22900     22902
     22897     22900     22903     22898     22897     22899     22898     22897     22900
     22899     22897     22900     22900     22903     22904     22900     22903     22905
     22900     22903     22906     22901     22900     22902     22901     22900     22903
     22902     22900     22903     22903     22906     22907     22903     22906     22908
     22903     22906     22909     22904     22903     22905     22904     22903     22906
     22905     22903     22906     22906     22909     22910     22906     22909     22911
     22906     22909     22912     22907     22906     22908     22907     22906     22909
     22908     22906     22909     22910     22909     22911     22910     22909     22912
     22911     22909     22912     22913     22916     22917     22913     22916     22918
     22913     22916     22919     22914     22913     22915     22914     22913     22916
     22915     22913     22916     22916     22919     22920     22916     22919     22921
     22916     22919     22922     22917     22916     22918     22917     22916     22919
     22918     22916     22919     22919     22922     22923     22919     22922     22924
     22919     22922     22925     22920     22919     22921     22920     22919     22922
     22921     22919     22922     22922     22925     22926     22922     22925     22927
     22922     22925     22928     22923     22922     22924     22923     22922     22925
     22924     22922     22925     22925     22928     22929     22925     22928     22930
     22925     22928     22931     22926     22925     22927     22926     22925     22928
     22927     22925     22928     22928     22931     22932     22928     22931     22933
     22928     22931     22934     22929     22928     22930     22929     22928     22931
     22930     22928     22931     22931     22934     22935     22931     22934     22936
     22931     22934     22937     22932     22931     22933     22932     22931     22934
     22933     22931     22934     22934     22937     22938     22934     22937     22939
     22934     22937     22940     22935     22934     22936     22935     22934     22937
     22936     22934     22937     22937     22940     22941     22937     22940     22942
     22937     22940     22943     22938     22937     22939     22938     22937     22940
     22939     22937     22940     22940     22943     22944     22940     22943     22945
     22940     22943     22946     22941     22940     22942     22941     22940     22943
     22942     22940     22943     22943     22946     22947     22943     22946     22948
     22943     22946     22949     22944     22943     22945     22944     22943     22946
     22945     22943     22946     22946     22949     22950     22946     22949     22951
     22946     22949     22952     22947     22946     22948     22947     22946     22949
     22948     22946     22949     22949     22952     22953     22949     22952     22954
     22949     22952     22955     22950     22949     22951     22950     22949     22952
     22951     22949     22952     22953     22952     22954     22953     22952     22955
     22954     22952     22955     22956     22959     22960     22956     22961     22962
     22956     22961     22963     22956     22961     22965     22957     22956     22958
     22957     22956     22959     22957     22956     22961     22958     22956     22959
     22958     22956     22961     22959     22956     22961     22961     22963     22964
     22961     22965     22966     22961     22965     22967     22961     22965     22972
     22962     22961     22963     22962     22961     22965     22963     22961     22965
     22965     22972     22968     22966     22965     22967     22966     22965     22972
     22967     22965     22972     22968     22971     22973     22969     22968     22970
     22969     22968     22971     22969     22968     22972     22970     22968     22971
     22970     22968     22972     22971     22968     22972     22971     22973     22974
     22971     22973     22975     22971     22973     22976     22973     22976     22977
     22973     22976     22978     22973     22976     22984     22974     22973     22975
     22974     22973     22976     22975     22973     22976     22976     22978     22979
     22976     22984     22985     22976     22984     22986     22976     22984     22987
     22977     22976     22978     22977     22976     22984     22978     22976     22984
     22978     22979     22980     22978     22979     22981     22979     22981     22982
     22979     22981     22983     22979     22981     22993     22980     22979     22981
     22981     22993     22994     22981     22993     22995     22981     22993     22996
     22982     22981     22983     22982     22981     22993     22983     22981     22993
     22984     22987     22988     22985     22984     22986     22985     22984     22987
     22986     22984     22987     22987     22988     22989     22987     22988     22990
     22988     22990     22991     22988     22990     22992     22988     22990     23037
     22989     22988     22990     22990     23037     23038     22990     23037     23039
     22990     23037     23040     22991     22990     22992     22991     22990     23037
     22992     22990     23037     22993     22996     22997     22993     22996     22998
     22993     22996     22999     22994     22993     22995     22994     22993     22996
     22995     22993     22996     22996     22999     23000     22996     22999     23001
     22996     22999     23002     22997     22996     22998     22997     22996     22999
     22998     22996     22999     22999     23002     23003     22999     23002     23004
     22999     23002     23005     23000     22999     23001     23000     22999     23002
     23001     22999     23002     23002     23005     23006     23002     23005     23007
     23002     23005     23008     23003     23002     23004     23003     23002     23005
     23004     23002     23005     23005     23008     23009     23005     23008     23010
     23005     23008     23011     23006     23005     23007     23006     23005     23008
     23007     23005     23008     23008     23011     23012     23008     23011     23013
     23008     23011     23016     23009     23008     23010     23009     23008     23011
     23010     23008     23011     23011     23013     23014     23011     23013     23015
     23011     23013     23016     23011     23016     23013     23011     23016     23017
     23011     23016     23018     23012     23011     23013     23012     23011     23016
     23013     23011     23016     23013     23016     23017     23013     23016     23018
     23014     23013     23015     23014     23013     23016     23015     23013     23016
     23016     23018     23019     23016     23018     23020     23016     23018     23021
     23017     23016     23018     23018     23021     23022     23018     23021     23023
     23018     23021     23024     23019     23018     23020     23019     23018     23021
     23020     23018     23021     23021     23024     23025     23021     23024     23026
     23021     23024     23027     23022     23021     23023     23022     23021     23024
     23023     23021     23024     23024     23027     23028     23024     23027     23029
     23024     23027     23030     23025     23024     23026     23025     23024     23027
     23026     23024     23027     23027     23030     23031     23027     23030     23032
     23027     23030     23033     23028     23027     23029     23028     23027     23030
     23029     23027     23030     23030     23033     23034     23030     23033     23035
     23030     23033     23036     23031     23030     23032     23031     23030     23033
     23032     23030     23033     23034     23033     23035     23034     23033     23036
     23035     23033     23036     23037     23040     23041     23037     23040     23042
     23037     23040     23043     23038     23037     23039     23038     23037     23040
     23039     23037     23040     23040     23043     23044     23040     23043     23045
     23040     23043     23046     23041     23040     23042     23041     23040     23043
     23042     23040     23043     23043     23046     23047     23043     23046     23048
     23043     23046     23049     23044     23043     23045     23044     23043     23046
     23045     23043     23046     23046     23049     23050     23046     23049     23051
     23046     23049     23052     23047     23046     23048     23047     23046     23049
     23048     23046     23049     23049     23052     23053     23049     23052     23054
     23049     23052     23055     23050     23049     23051     23050     23049     23052
     23051     23049     23052     23052     23055     23056     23052     23055     23057
     23052     23055     23058     23053     23052     23054     23053     23052     23055
     23054     23052     23055     23055     23058     23059     23055     23058     23060
     23055     23058     23061     23056     23055     23057     23056     23055     23058
     23057     23055     23058     23058     23061     23062     23058     23061     23063
     23058     23061     23064     23059     23058     23060     23059     23058     23061
     23060     23058     23061     23061     23064     23065     23061     23064     23066
     23061     23064     23067     23062     23061     23063     23062     23061     23064
     23063     23061     23064     23064     23067     23068     23064     23067     23069
     23064     23067     23070     23065     23064     23066     23065     23064     23067
     23066     23064     23067     23067     23070     23071     23067     23070     23072
     23067     23070     23073     23068     23067     23069     23068     23067     23070
     23069     23067     23070     23070     23073     23074     23070     23073     23075
     23070     23073     23076     23071     23070     23072     23071     23070     23073
     23072     23070     23073     23073     23076     23077     23073     23076     23078
     23073     23076     23079     23074     23073     23075     23074     23073     23076
     23075     23073     23076     23077     23076     23078     23077     23076     23079
     23078     23076     23079     23080     23084     23085     23080     23084     23086
     23080     23084     23087     23081     23080     23082     23081     23080     23083
     23081     23080     23084     23082     23080     23083     23082     23080     23084
     23083     23080     23084     23084     23087     23088     23084     23087     23089
     23084     23087     23094     23085     23084     23086     23085     23084     23087
     23086     23084     23087     23087     23094     23090     23088     23087     23089
     23088     23087     23094     23089     23087     23094     23090     23093     23095
     23091     23090     23092     23091     23090     23093     23091     23090     23094
     23092     23090     23093     23092     23090     23094     23093     23090     23094
     23093     23095     23096     23093     23095     23097     23093     23095     23098
     23095     23098     23099     23095     23098     23100     23095     23098     23106
     23096     23095     23097     23096     23095     23098     23097     23095     23098
     23098     23100     23101     23098     23106     23107     23098     23106     23108
     23098     23106     23109     23099     23098     23100     23099     23098     23106
     23100     23098     23106     23100     23101     23102     23100     23101     23103
     23101     23103     23104     23101     23103     23105     23101     23103     23115
     23102     23101     23103     23103     23115     23116     23103     23115     23117
     23103     23115     23118     23104     23103     23105     23104     23103     23115
     23105     23103     23115     23106     23109     23110     23107     23106     23108
     23107     23106     23109     23108     23106     23109     23109     23110     23111
     23109     23110     23112     23110     23112     23113     23110     23112     23114
     23110     23112     23159     23111     23110     23112     23112     23159     23160
     23112     23159     23161     23112     23159     23162     23113     23112     23114
     23113     23112     23159     23114     23112     23159     23115     23118     23119
     23115     23118     23120     23115     23118     23121     23116     23115     23117
     23116     23115     23118     23117     23115     23118     23118     23121     23122
     23118     23121     23123     23118     23121     23124     23119     23118     23120
     23119     23118     23121     23120     23118     23121     23121     23124     23125
     23121     23124     23126     23121     23124     23127     23122     23121     23123
     23122     23121     23124     23123     23121     23124     23124     23127     23128
     23124     23127     23129     23124     23127     23130     23125     23124     23126
     23125     23124     23127     23126     23124     23127     23127     23130     23131
     23127     23130     23132     23127     23130     23133     23128     23127     23129
     23128     23127     23130     23129     23127     23130     23130     23133     23134
     23130     23133     23135     23130     23133     23138     23131     23130     23132
     23131     23130     23133     23132     23130     23133     23133     23135     23136
     23133     23135     23137     23133     23135     23138     23133     23138     23135
     23133     23138     23139     23133     23138     23140     23134     23133     23135
     23134     23133     23138     23135     23133     23138     23135     23138     23139
     23135     23138     23140     23136     23135     23137     23136     23135     23138
     23137     23135     23138     23138     23140     23141     23138     23140     23142
     23138     23140     23143     23139     23138     23140     23140     23143     23144
     23140     23143     23145     23140     23143     23146     23141     23140     23142
     23141     23140     23143     23142     23140     23143     23143     23146     23147
     23143     23146     23148     23143     23146     23149     23144     23143     23145
     23144     23143     23146     23145     23143     23146     23146     23149     23150
     23146     23149     23151     23146     23149     23152     23147     23146     23148
     23147     23146     23149     23148     23146     23149     23149     23152     23153
     23149     23152     23154     23149     23152     23155     23150     23149     23151
     23150     23149     23152     23151     23149     23152     23152     23155     23156
     23152     23155     23157     23152     23155     23158     23153     23152     23154
     23153     23152     23155     23154     23152     23155     23156     23155     23157
     23156     23155     23158     23157     23155     23158     23159     23162     23163
     23159     23162     23164     23159     23162     23165     23160     23159     23161
     23160     23159     23162     23161     23159     23162     23162     23165     23166
     23162     23165     23167     23162     23165     23168     23163     23162     23164
     23163     23162     23165     23164     23162     23165     23165     23168     23169
     23165     23168     23170     23165     23168     23171     23166     23165     23167
     23166     23165     23168     23167     23165     23168     23168     23171     23172
     23168     23171     23173     23168     23171     23174     23169     23168     23170
     23169     23168     23171     23170     23168     23171     23171     23174     23175
     23171     23174     23176     23171     23174     23177     23172     23171     23173
     23172     23171     23174     23173     23171     23174     23174     23177     23178
     23174     23177     23179     23174     23177     23180     23175     23174     23176
     23175     23174     23177     23176     23174     23177     23177     23180     23181
     23177     23180     23182     23177     23180     23183     23178     23177     23179
     23178     23177     23180     23179     23177     23180     23180     23183     23184
     23180     23183     23185     23180     23183     23186     23181     23180     23182
     23181     23180     23183     23182     23180     23183     23183     23186     23187
     23183     23186     23188     23183     23186     23189     23184     23183     23185
     23184     23183     23186     23185     23183     23186     23186     23189     23190
     23186     23189     23191     23186     23189     23192     23187     23186     23188
     23187     23186     23189     23188     23186     23189     23189     23192     23193
     23189     23192     23194     23189     23192     23195     23190     23189     23191
     23190     23189     23192     23191     23189     23192     23192     23195     23196
     23192     23195     23197     23192     23195     23198     23193     23192     23194
     23193     23192     23195     23194     23192     23195     23195     23198     23199
     23195     23198     23200     23195     23198     23201     23196     23195     23197
     23196     23195     23198     23197     23195     23198     23199     23198     23200
     23199     23198     23201     23200     23198     23201     23202     23205     23206
     23202     23207     23208     23202     23207     23209     23202     23207     23211
     23203     23202     23204     23203     23202     23205     23203     23202     23207
     23204     23202     23205     23204     23202     23207     23205     23202     23207
     23207     23209     23210     23207     23211     23212     23207     23211     23213
     23207     23211     23218     23208     23207     23209     23208     23207     23211
     23209     23207     23211     23211     23218     23214     23212     23211     23213
     23212     23211     23218     23213     23211     23218     23214     23217     23219
     23215     23214     23216     23215     23214     23217     23215     23214     23218
     23216     23214     23217     23216     23214     23218     23217     23214     23218
     23217     23219     23220     23217     23219     23221     23217     23219     23222
     23219     23222     23223     23219     23222     23224     23219     23222     23230
     23220     23219     23221     23220     23219     23222     23221     23219     23222
     23222     23224     23225     23222     23230     23231     23222     23230     23232
     23222     23230     23233     23223     23222     23224     23223     23222     23230
     23224     23222     23230     23224     23225     23226     23224     23225     23227
     23225     23227     23228     23225     23227     23229     23225     23227     23239
     23226     23225     23227     23227     23239     23240     23227     23239     23241
     23227     23239     23242     23228     23227     23229     23228     23227     23239
     23229     23227     23239     23230     23233     23234     23231     23230     23232
     23231     23230     23233     23232     23230     23233     23233     23234     23235
     23233     23234     23236     23234     23236     23237     23234     23236     23238
     23234     23236     23283     23235     23234     23236     23236     23283     23284
     23236     23283     23285     23236     23283     23286     23237     23236     23238
     23237     23236     23283     23238     23236     23283     23239     23242     23243
     23239     23242     23244     23239     23242     23245     23240     23239     23241
     23240     23239     23242     23241     23239     23242     23242     23245     23246
     23242     23245     23247     23242     23245     23248     23243     23242     23244
     23243     23242     23245     23244     23242     23245     23245     23248     23249
     23245     23248     23250     23245     23248     23251     23246     23245     23247
     23246     23245     23248     23247     23245     23248     23248     23251     23252
     23248     23251     23253     23248     23251     23254     23249     23248     23250
     23249     23248     23251     23250     23248     23251     23251     23254     23255
     23251     23254     23256     23251     23254     23257     23252     23251     23253
     23252     23251     23254     23253     23251     23254     23254     23257     23258
     23254     23257     23259     23254     23257     23262     23255     23254     23256
     23255     23254     23257     23256     23254     23257     23257     23259     23260
     23257     23259     23261     23257     23259     23262     23257     23262     23259
     23257     23262     23263     23257     23262     23264     23258     23257     23259
     23258     23257     23262     23259     23257     23262     23259     23262     23263
     23259     23262     23264     23260     23259     23261     23260     23259     23262
     23261     23259     23262     23262     23264     23265     23262     23264     23266
     23262     23264     23267     23263     23262     23264     23264     23267     23268
     23264     23267     23269     23264     23267     23270     23265     23264     23266
     23265     23264     23267     23266     23264     23267     23267     23270     23271
     23267     23270     23272     23267     23270     23273     23268     23267     23269
     23268     23267     23270     23269     23267     23270     23270     23273     23274
     23270     23273     23275     23270     23273     23276     23271     23270     23272
     23271     23270     23273     23272     23270     23273     23273     23276     23277
     23273     23276     23278     23273     23276     23279     23274     23273     23275
     23274     23273     23276     23275     23273     23276     23276     23279     23280
     23276     23279     23281     23276     23279     23282     23277     23276     23278
     23277     23276     23279     23278     23276     23279     23280     23279     23281
     23280     23279     23282     23281     23279     23282     23283     23286     23287
     23283     23286     23288     23283     23286     23289     23284     23283     23285
     23284     23283     23286     23285     23283     23286     23286     23289     23290
     23286     23289     23291     23286     23289     23292     23287     23286     23288
     23287     23286     23289     23288     23286     23289     23289     23292     23293
     23289     23292     23294     23289     23292     23295     23290     23289     23291
     23290     23289     23292     23291     23289     23292     23292     23295     23296
     23292     23295     23297     23292     23295     23298     23293     23292     23294
     23293     23292     23295     23294     23292     23295     23295     23298     23299
     23295     23298     23300     23295     23298     23301     23296     23295     23297
     23296     23295     23298     23297     23295     23298     23298     23301     23302
     23298     23301     23303     23298     23301     23304     23299     23298     23300
     23299     23298     23301     23300     23298     23301     23301     23304     23305
     23301     23304     23306     23301     23304     23307     23302     23301     23303
     23302     23301     23304     23303     23301     23304     23304     23307     23308
     23304     23307     23309     23304     23307     23310     23305     23304     23306
     23305     23304     23307     23306     23304     23307     23307     23310     23311
     23307     23310     23312     23307     23310     23313     23308     23307     23309
     23308     23307     23310     23309     23307     23310     23310     23313     23314
     23310     23313     23315     23310     23313     23316     23311     23310     23312
     23311     23310     23313     23312     23310     23313     23313     23316     23317
     23313     23316     23318     23313     23316     23319     23314     23313     23315
     23314     23313     23316     23315     23313     23316     23316     23319     23320
     23316     23319     23321     23316     23319     23322     23317     23316     23318
     23317     23316     23319     23318     23316     23319     23319     23322     23323
     23319     23322     23324     23319     23322     23325     23320     23319     23321
     23320     23319     23322     23321     23319     23322     23323     23322     23324
     23323     23322     23325     23324     23322     23325     23326     23329     23330
     23326     23331     23332     23326     23331     23333     23326     23331     23335
     23327     23326     23328     23327     23326     23329     23327     23326     23331
     23328     23326     23329     23328     23326     23331     23329     23326     23331
     23331     23333     23334     23331     23335     23336     23331     23335     23337
     23331     23335     23342     23332     23331     23333     23332     23331     23335
     23333     23331     23335     23335     23342     23338     23336     23335     23337
     23336     23335     23342     23337     23335     23342     23338     23341     23343
     23339     23338     23340     23339     23338     23341     23339     23338     23342
     23340     23338     23341     23340     23338     23342     23341     23338     23342
     23341     23343     23344     23341     23343     23345     23341     23343     23346
     23343     23346     23347     23343     23346     23348     23343     23346     23354
     23344     23343     23345     23344     23343     23346     23345     23343     23346
     23346     23348     23349     23346     23354     23355     23346     23354     23356
     23346     23354     23357     23347     23346     23348     23347     23346     23354
     23348     23346     23354     23348     23349     23350     23348     23349     23351
     23349     23351     23352     23349     23351     23353     23349     23351     23363
     23350     23349     23351     23351     23363     23364     23351     23363     23365
     23351     23363     23366     23352     23351     23353     23352     23351     23363
     23353     23351     23363     23354     23357     23358     23355     23354     23356
     23355     23354     23357     23356     23354     23357     23357     23358     23359
     23357     23358     23360     23358     23360     23361     23358     23360     23362
     23358     23360     23404     23359     23358     23360     23360     23404     23405
     23360     23404     23406     23360     23404     23407     23361     23360     23362
     23361     23360     23404     23362     23360     23404     23363     23366     23367
     23363     23366     23368     23363     23366     23369     23364     23363     23365
     23364     23363     23366     23365     23363     23366     23366     23369     23370
     23366     23369     23371     23366     23369     23372     23367     23366     23368
     23367     23366     23369     23368     23366     23369     23369     23372     23373
     23369     23372     23374     23369     23372     23375     23370     23369     23371
     23370     23369     23372     23371     23369     23372     23372     23375     23376
     23372     23375     23377     23372     23375     23378     23373     23372     23374
     23373     23372     23375     23374     23372     23375     23375     23378     23379
     23375     23378     23380     23375     23378     23381     23376     23375     23377
     23376     23375     23378     23377     23375     23378     23378     23381     23382
     23378     23381     23383     23379     23378     23380     23379     23378     23381
     23380     23378     23381     23381     23383     23384     23381     23383     23385
     23382     23381     23383     23383     23385     23386     23383     23385     23387
     23383     23385     23388     23384     23383     23385     23385     23388     23389
     23385     23388     23390     23385     23388     23391     23386     23385     23387
     23386     23385     23388     23387     23385     23388     23388     23391     23392
     23388     23391     23393     23388     23391     23394     23389     23388     23390
     23389     23388     23391     23390     23388     23391     23391     23394     23395
     23391     23394     23396     23391     23394     23397     23392     23391     23393
     23392     23391     23394     23393     23391     23394     23394     23397     23398
     23394     23397     23399     23394     23397     23400     23395     23394     23396
     23395     23394     23397     23396     23394     23397     23397     23400     23401
     23397     23400     23402     23397     23400     23403     23398     23397     23399
     23398     23397     23400     23399     23397     23400     23401     23400     23402
     23401     23400     23403     23402     23400     23403     23404     23407     23408
     23404     23407     23409     23404     23407     23410     23405     23404     23406
     23405     23404     23407     23406     23404     23407     23407     23410     23411
     23407     23410     23412     23407     23410     23413     23408     23407     23409
     23408     23407     23410     23409     23407     23410     23410     23413     23414
     23410     23413     23415     23410     23413     23416     23411     23410     23412
     23411     23410     23413     23412     23410     23413     23413     23416     23417
     23413     23416     23418     23413     23416     23419     23414     23413     23415
     23414     23413     23416     23415     23413     23416     23416     23419     23420
     23416     23419     23421     23416     23419     23422     23417     23416     23418
     23417     23416     23419     23418     23416     23419     23419     23422     23423
     23419     23422     23424     23419     23422     23425     23420     23419     23421
     23420     23419     23422     23421     23419     23422     23422     23425     23426
     23422     23425     23427     23422     23425     23428     23423     23422     23424
     23423     23422     23425     23424     23422     23425     23425     23428     23429
     23425     23428     23430     23425     23428     23431     23426     23425     23427
     23426     23425     23428     23427     23425     23428     23428     23431     23432
     23428     23431     23433     23428     23431     23434     23429     23428     23430
     23429     23428     23431     23430     23428     23431     23431     23434     23435
     23431     23434     23436     23431     23434     23437     23432     23431     23433
     23432     23431     23434     23433     23431     23434     23434     23437     23438
     23434     23437     23439     23434     23437     23440     23435     23434     23436
     23435     23434     23437     23436     23434     23437     23437     23440     23441
     23437     23440     23442     23437     23440     23443     23438     23437     23439
     23438     23437     23440     23439     23437     23440     23440     23443     23444
     23440     23443     23445     23440     23443     23446     23441     23440     23442
     23441     23440     23443     23442     23440     23443     23444     23443     23445
     23444     23443     23446     23445     23443     23446     23447     23451     23452
     23447     23451     23453     23447     23451     23454     23448     23447     23449
     23448     23447     23450     23448     23447     23451     23449     23447     23450
     23449     23447     23451     23450     23447     23451     23451     23454     23455
     23451     23454     23456     23451     23454     23461     23452     23451     23453
     23452     23451     23454     23453     23451     23454     23454     23461     23457
     23455     23454     23456     23455     23454     23461     23456     23454     23461
     23457     23460     23462     23458     23457     23459     23458     23457     23460
     23458     23457     23461     23459     23457     23460     23459     23457     23461
     23460     23457     23461     23460     23462     23463     23460     23462     23464
     23460     23462     23465     23462     23465     23466     23462     23465     23467
     23462     23465     23473     23463     23462     23464     23463     23462     23465
     23464     23462     23465     23465     23467     23468     23465     23473     23474
     23465     23473     23475     23465     23473     23476     23466     23465     23467
     23466     23465     23473     23467     23465     23473     23467     23468     23469
     23467     23468     23470     23468     23470     23471     23468     23470     23472
     23468     23470     23482     23469     23468     23470     23470     23482     23483
     23470     23482     23484     23470     23482     23485     23471     23470     23472
     23471     23470     23482     23472     23470     23482     23473     23476     23477
     23474     23473     23475     23474     23473     23476     23475     23473     23476
     23476     23477     23478     23476     23477     23479     23477     23479     23480
     23477     23479     23481     23477     23479     23529     23478     23477     23479
     23479     23529     23530     23479     23529     23531     23479     23529     23532
     23480     23479     23481     23480     23479     23529     23481     23479     23529
     23482     23485     23486     23482     23485     23487     23482     23485     23488
     23483     23482     23484     23483     23482     23485     23484     23482     23485
     23485     23488     23489     23485     23488     23490     23485     23488     23491
     23486     23485     23487     23486     23485     23488     23487     23485     23488
     23488     23491     23492     23488     23491     23493     23488     23491     23494
     23489     23488     23490     23489     23488     23491     23490     23488     23491
     23491     23494     23495     23491     23494     23496     23491     23494     23497
     23492     23491     23493     23492     23491     23494     23493     23491     23494
     23494     23497     23498     23494     23497     23499     23494     23497     23500
     23495     23494     23496     23495     23494     23497     23496     23494     23497
     23497     23500     23501     23497     23500     23502     23498     23497     23499
     23498     23497     23500     23499     23497     23500     23500     23502     23503
     23500     23502     23504     23501     23500     23502     23502     23504     23505
     23502     23504     23506     23502     23504     23507     23503     23502     23504
     23504     23507     23508     23504     23507     23509     23504     23507     23510
     23505     23504     23506     23505     23504     23507     23506     23504     23507
     23507     23510     23511     23507     23510     23512     23507     23510     23513
     23508     23507     23509     23508     23507     23510     23509     23507     23510
     23510     23513     23514     23510     23513     23515     23510     23513     23516
     23511     23510     23512     23511     23510     23513     23512     23510     23513
     23513     23516     23517     23513     23516     23518     23513     23516     23519
     23514     23513     23515     23514     23513     23516     23515     23513     23516
     23516     23519     23520     23516     23519     23521     23516     23519     23522
     23517     23516     23518     23517     23516     23519     23518     23516     23519
     23519     23522     23523     23519     23522     23524     23519     23522     23525
     23520     23519     23521     23520     23519     23522     23521     23519     23522
     23522     23525     23526     23522     23525     23527     23522     23525     23528
     23523     23522     23524     23523     23522     23525     23524     23522     23525
     23526     23525     23527     23526     23525     23528     23527     23525     23528
     23529     23532     23533     23529     23532     23534     23529     23532     23535
     23530     23529     23531     23530     23529     23532     23531     23529     23532
     23532     23535     23536     23532     23535     23537     23532     23535     23538
     23533     23532     23534     23533     23532     23535     23534     23532     23535
     23535     23538     23539     23535     23538     23540     23535     23538     23541
     23536     23535     23537     23536     23535     23538     23537     23535     23538
     23538     23541     23542     23538     23541     23543     23538     23541     23544
     23539     23538     23540     23539     23538     23541     23540     23538     23541
     23541     23544     23545     23541     23544     23546     23541     23544     23547
     23542     23541     23543     23542     23541     23544     23543     23541     23544
     23544     23547     23548     23544     23547     23549     23544     23547     23550
     23545     23544     23546     23545     23544     23547     23546     23544     23547
     23547     23550     23551     23547     23550     23552     23547     23550     23553
     23548     23547     23549     23548     23547     23550     23549     23547     23550
     23550     23553     23554     23550     23553     23555     23550     23553     23556
     23551     23550     23552     23551     23550     23553     23552     23550     23553
     23553     23556     23557     23553     23556     23558     23553     23556     23559
     23554     23553     23555     23554     23553     23556     23555     23553     23556
     23556     23559     23560     23556     23559     23561     23556     23559     23562
     23557     23556     23558     23557     23556     23559     23558     23556     23559
     23559     23562     23563     23559     23562     23564     23559     23562     23565
     23560     23559     23561     23560     23559     23562     23561     23559     23562
     23562     23565     23566     23562     23565     23567     23562     23565     23568
     23563     23562     23564     23563     23562     23565     23564     23562     23565
     23565     23568     23569     23565     23568     23570     23565     23568     23571
     23566     23565     23567     23566     23565     23568     23567     23565     23568
     23569     23568     23570     23569     23568     23571     23570     23568     23571
     23572     23576     23577     23572     23576     23578     23572     23576     23579
     23573     23572     23574     23573     23572     23575     23573     23572     23576
     23574     23572     23575     23574     23572     23576     23575     23572     23576
     23576     23579     23580     23576     23579     23581     23576     23579     23586
     23577     23576     23578     23577     23576     23579     23578     23576     23579
     23579     23586     23582     23580     23579     23581     23580     23579     23586
     23581     23579     23586     23582     23585     23587     23583     23582     23584
     23583     23582     23585     23583     23582     23586     23584     23582     23585
     23584     23582     23586     23585     23582     23586     23585     23587     23588
     23585     23587     23589     23585     23587     23590     23587     23590     23591
     23587     23590     23592     23587     23590     23598     23588     23587     23589
     23588     23587     23590     23589     23587     23590     23590     23592     23593
     23590     23598     23599     23590     23598     23600     23590     23598     23601
     23591     23590     23592     23591     23590     23598     23592     23590     23598
     23592     23593     23594     23592     23593     23595     23593     23595     23596
     23593     23595     23597     23593     23595     23607     23594     23593     23595
     23595     23607     23608     23595     23607     23609     23595     23607     23610
     23596     23595     23597     23596     23595     23607     23597     23595     23607
     23598     23601     23602     23599     23598     23600     23599     23598     23601
     23600     23598     23601     23601     23602     23603     23601     23602     23604
     23602     23604     23605     23602     23604     23606     23602     23604     23651
     23603     23602     23604     23604     23651     23652     23604     23651     23653
     23604     23651     23654     23605     23604     23606     23605     23604     23651
     23606     23604     23651     23607     23610     23611     23607     23610     23612
     23607     23610     23613     23608     23607     23609     23608     23607     23610
     23609     23607     23610     23610     23613     23614     23610     23613     23615
     23610     23613     23616     23611     23610     23612     23611     23610     23613
     23612     23610     23613     23613     23616     23617     23613     23616     23618
     23613     23616     23619     23614     23613     23615     23614     23613     23616
     23615     23613     23616     23616     23619     23620     23616     23619     23621
     23616     23619     23622     23617     23616     23618     23617     23616     23619
     23618     23616     23619     23619     23622     23623     23619     23622     23624
     23619     23622     23625     23620     23619     23621     23620     23619     23622
     23621     23619     23622     23622     23625     23626     23622     23625     23627
     23622     23625     23630     23623     23622     23624     23623     23622     23625
     23624     23622     23625     23625     23627     23628     23625     23627     23629
     23625     23627     23630     23625     23630     23627     23625     23630     23631
     23625     23630     23632     23626     23625     23627     23626     23625     23630
     23627     23625     23630     23627     23630     23631     23627     23630     23632
     23628     23627     23629     23628     23627     23630     23629     23627     23630
     23630     23632     23633     23630     23632     23634     23630     23632     23635
     23631     23630     23632     23632     23635     23636     23632     23635     23637
     23632     23635     23638     23633     23632     23634     23633     23632     23635
     23634     23632     23635     23635     23638     23639     23635     23638     23640
     23635     23638     23641     23636     23635     23637     23636     23635     23638
     23637     23635     23638     23638     23641     23642     23638     23641     23643
     23638     23641     23644     23639     23638     23640     23639     23638     23641
     23640     23638     23641     23641     23644     23645     23641     23644     23646
     23641     23644     23647     23642     23641     23643     23642     23641     23644
     23643     23641     23644     23644     23647     23648     23644     23647     23649
     23644     23647     23650     23645     23644     23646     23645     23644     23647
     23646     23644     23647     23648     23647     23649     23648     23647     23650
     23649     23647     23650     23651     23654     23655     23651     23654     23656
     23651     23654     23657     23652     23651     23653     23652     23651     23654
     23653     23651     23654     23654     23657     23658     23654     23657     23659
     23654     23657     23660     23655     23654     23656     23655     23654     23657
     23656     23654     23657     23657     23660     23661     23657     23660     23662
     23657     23660     23663     23658     23657     23659     23658     23657     23660
     23659     23657     23660     23660     23663     23664     23660     23663     23665
     23660     23663     23666     23661     23660     23662     23661     23660     23663
     23662     23660     23663     23663     23666     23667     23663     23666     23668
     23663     23666     23669     23664     23663     23665     23664     23663     23666
     23665     23663     23666     23666     23669     23670     23666     23669     23671
     23666     23669     23672     23667     23666     23668     23667     23666     23669
     23668     23666     23669     23669     23672     23673     23669     23672     23674
     23669     23672     23675     23670     23669     23671     23670     23669     23672
     23671     23669     23672     23672     23675     23676     23672     23675     23677
     23672     23675     23678     23673     23672     23674     23673     23672     23675
     23674     23672     23675     23675     23678     23679     23675     23678     23680
     23675     23678     23681     23676     23675     23677     23676     23675     23678
     23677     23675     23678     23678     23681     23682     23678     23681     23683
     23678     23681     23684     23679     23678     23680     23679     23678     23681
     23680     23678     23681     23681     23684     23685     23681     23684     23686
     23681     23684     23687     23682     23681     23683     23682     23681     23684
     23683     23681     23684     23684     23687     23688     23684     23687     23689
     23684     23687     23690     23685     23684     23686     23685     23684     23687
     23686     23684     23687     23687     23690     23691     23687     23690     23692
     23687     23690     23693     23688     23687     23689     23688     23687     23690
     23689     23687     23690     23691     23690     23692     23691     23690     23693
     23692     23690     23693     23694     23697     23698     23694     23699     23700
     23694     23699     23701     23694     23699     23703     23695     23694     23696
     23695     23694     23697     23695     23694     23699     23696     23694     23697
     23696     23694     23699     23697     23694     23699     23699     23701     23702
     23699     23703     23704     23699     23703     23705     23699     23703     23710
     23700     23699     23701     23700     23699     23703     23701     23699     23703
     23703     23710     23706     23704     23703     23705     23704     23703     23710
     23705     23703     23710     23706     23709     23711     23707     23706     23708
     23707     23706     23709     23707     23706     23710     23708     23706     23709
     23708     23706     23710     23709     23706     23710     23709     23711     23712
     23709     23711     23713     23709     23711     23714     23711     23714     23715
     23711     23714     23716     23711     23714     23722     23712     23711     23713
     23712     23711     23714     23713     23711     23714     23714     23716     23717
     23714     23722     23723     23714     23722     23724     23714     23722     23725
     23715     23714     23716     23715     23714     23722     23716     23714     23722
     23716     23717     23718     23716     23717     23719     23717     23719     23720
     23717     23719     23721     23717     23719     23731     23718     23717     23719
     23719     23731     23732     23719     23731     23733     23719     23731     23734
     23720     23719     23721     23720     23719     23731     23721     23719     23731
     23722     23725     23726     23723     23722     23724     23723     23722     23725
     23724     23722     23725     23725     23726     23727     23725     23726     23728
     23726     23728     23729     23726     23728     23730     23726     23728     23775
     23727     23726     23728     23728     23775     23776     23728     23775     23777
     23728     23775     23778     23729     23728     23730     23729     23728     23775
     23730     23728     23775     23731     23734     23735     23731     23734     23736
     23731     23734     23737     23732     23731     23733     23732     23731     23734
     23733     23731     23734     23734     23737     23738     23734     23737     23739
     23734     23737     23740     23735     23734     23736     23735     23734     23737
     23736     23734     23737     23737     23740     23741     23737     23740     23742
     23737     23740     23743     23738     23737     23739     23738     23737     23740
     23739     23737     23740     23740     23743     23744     23740     23743     23745
     23740     23743     23746     23741     23740     23742     23741     23740     23743
     23742     23740     23743     23743     23746     23747     23743     23746     23748
     23743     23746     23749     23744     23743     23745     23744     23743     23746
     23745     23743     23746     23746     23749     23750     23746     23749     23751
     23746     23749     23754     23747     23746     23748     23747     23746     23749
     23748     23746     23749     23749     23751     23752     23749     23751     23753
     23749     23751     23754     23749     23754     23751     23749     23754     23755
     23749     23754     23756     23750     23749     23751     23750     23749     23754
     23751     23749     23754     23751     23754     23755     23751     23754     23756
     23752     23751     23753     23752     23751     23754     23753     23751     23754
     23754     23756     23757     23754     23756     23758     23754     23756     23759
     23755     23754     23756     23756     23759     23760     23756     23759     23761
     23756     23759     23762     23757     23756     23758     23757     23756     23759
     23758     23756     23759     23759     23762     23763     23759     23762     23764
     23759     23762     23765     23760     23759     23761     23760     23759     23762
     23761     23759     23762     23762     23765     23766     23762     23765     23767
     23762     23765     23768     23763     23762     23764     23763     23762     23765
     23764     23762     23765     23765     23768     23769     23765     23768     23770
     23765     23768     23771     23766     23765     23767     23766     23765     23768
     23767     23765     23768     23768     23771     23772     23768     23771     23773
     23768     23771     23774     23769     23768     23770     23769     23768     23771
     23770     23768     23771     23772     23771     23773     23772     23771     23774
     23773     23771     23774     23775     23778     23779     23775     23778     23780
     23775     23778     23781     23776     23775     23777     23776     23775     23778
     23777     23775     23778     23778     23781     23782     23778     23781     23783
     23778     23781     23784     23779     23778     23780     23779     23778     23781
     23780     23778     23781     23781     23784     23785     23781     23784     23786
     23781     23784     23787     23782     23781     23783     23782     23781     23784
     23783     23781     23784     23784     23787     23788     23784     23787     23789
     23784     23787     23790     23785     23784     23786     23785     23784     23787
     23786     23784     23787     23787     23790     23791     23787     23790     23792
     23787     23790     23793     23788     23787     23789     23788     23787     23790
     23789     23787     23790     23790     23793     23794     23790     23793     23795
     23790     23793     23796     23791     23790     23792     23791     23790     23793
     23792     23790     23793     23793     23796     23797     23793     23796     23798
     23793     23796     23799     23794     23793     23795     23794     23793     23796
     23795     23793     23796     23796     23799     23800     23796     23799     23801
     23796     23799     23802     23797     23796     23798     23797     23796     23799
     23798     23796     23799     23799     23802     23803     23799     23802     23804
     23799     23802     23805     23800     23799     23801     23800     23799     23802
     23801     23799     23802     23802     23805     23806     23802     23805     23807
     23802     23805     23808     23803     23802     23804     23803     23802     23805
     23804     23802     23805     23805     23808     23809     23805     23808     23810
     23805     23808     23811     23806     23805     23807     23806     23805     23808
     23807     23805     23808     23808     23811     23812     23808     23811     23813
     23808     23811     23814     23809     23808     23810     23809     23808     23811
     23810     23808     23811     23811     23814     23815     23811     23814     23816
     23811     23814     23817     23812     23811     23813     23812     23811     23814
     23813     23811     23814     23815     23814     23816     23815     23814     23817
     23816     23814     23817     23818     23821     23822     23818     23823     23824
     23818     23823     23825     23818     23823     23827     23819     23818     23820
     23819     23818     23821     23819     23818     23823     23820     23818     23821
     23820     23818     23823     23821     23818     23823     23823     23825     23826
     23823     23827     23828     23823     23827     23829     23823     23827     23834
     23824     23823     23825     23824     23823     23827     23825     23823     23827
     23827     23834     23830     23828     23827     23829     23828     23827     23834
     23829     23827     23834     23830     23833     23835     23831     23830     23832
     23831     23830     23833     23831     23830     23834     23832     23830     23833
     23832     23830     23834     23833     23830     23834     23833     23835     23836
     23833     23835     23837     23833     23835     23838     23835     23838     23839
     23835     23838     23840     23835     23838     23846     23836     23835     23837
     23836     23835     23838     23837     23835     23838     23838     23840     23841
     23838     23846     23847     23838     23846     23848     23838     23846     23849
     23839     23838     23840     23839     23838     23846     23840     23838     23846
     23840     23841     23842     23840     23841     23843     23841     23843     23844
     23841     23843     23845     23841     23843     23855     23842     23841     23843
     23843     23855     23856     23843     23855     23857     23843     23855     23858
     23844     23843     23845     23844     23843     23855     23845     23843     23855
     23846     23849     23850     23847     23846     23848     23847     23846     23849
     23848     23846     23849     23849     23850     23851     23849     23850     23852
     23850     23852     23853     23850     23852     23854     23850     23852     23899
     23851     23850     23852     23852     23899     23900     23852     23899     23901
     23852     23899     23902     23853     23852     23854     23853     23852     23899
     23854     23852     23899     23855     23858     23859     23855     23858     23860
     23855     23858     23861     23856     23855     23857     23856     23855     23858
     23857     23855     23858     23858     23861     23862     23858     23861     23863
     23858     23861     23864     23859     23858     23860     23859     23858     23861
     23860     23858     23861     23861     23864     23865     23861     23864     23866
     23861     23864     23867     23862     23861     23863     23862     23861     23864
     23863     23861     23864     23864     23867     23868     23864     23867     23869
     23864     23867     23870     23865     23864     23866     23865     23864     23867
     23866     23864     23867     23867     23870     23871     23867     23870     23872
     23867     23870     23873     23868     23867     23869     23868     23867     23870
     23869     23867     23870     23870     23873     23874     23870     23873     23875
     23870     23873     23878     23871     23870     23872     23871     23870     23873
     23872     23870     23873     23873     23875     23876     23873     23875     23877
     23873     23875     23878     23873     23878     23875     23873     23878     23879
     23873     23878     23880     23874     23873     23875     23874     23873     23878
     23875     23873     23878     23875     23878     23879     23875     23878     23880
     23876     23875     23877     23876     23875     23878     23877     23875     23878
     23878     23880     23881     23878     23880     23882     23878     23880     23883
     23879     23878     23880     23880     23883     23884     23880     23883     23885
     23880     23883     23886     23881     23880     23882     23881     23880     23883
     23882     23880     23883     23883     23886     23887     23883     23886     23888
     23883     23886     23889     23884     23883     23885     23884     23883     23886
     23885     23883     23886     23886     23889     23890     23886     23889     23891
     23886     23889     23892     23887     23886     23888     23887     23886     23889
     23888     23886     23889     23889     23892     23893     23889     23892     23894
     23889     23892     23895     23890     23889     23891     23890     23889     23892
     23891     23889     23892     23892     23895     23896     23892     23895     23897
     23892     23895     23898     23893     23892     23894     23893     23892     23895
     23894     23892     23895     23896     23895     23897     23896     23895     23898
     23897     23895     23898     23899     23902     23903     23899     23902     23904
     23899     23902     23905     23900     23899     23901     23900     23899     23902
     23901     23899     23902     23902     23905     23906     23902     23905     23907
     23902     23905     23908     23903     23902     23904     23903     23902     23905
     23904     23902     23905     23905     23908     23909     23905     23908     23910
     23905     23908     23911     23906     23905     23907     23906     23905     23908
     23907     23905     23908     23908     23911     23912     23908     23911     23913
     23908     23911     23914     23909     23908     23910     23909     23908     23911
     23910     23908     23911     23911     23914     23915     23911     23914     23916
     23911     23914     23917     23912     23911     23913     23912     23911     23914
     23913     23911     23914     23914     23917     23918     23914     23917     23919
     23914     23917     23920     23915     23914     23916     23915     23914     23917
     23916     23914     23917     23917     23920     23921     23917     23920     23922
     23917     23920     23923     23918     23917     23919     23918     23917     23920
     23919     23917     23920     23920     23923     23924     23920     23923     23925
     23920     23923     23926     23921     23920     23922     23921     23920     23923
     23922     23920     23923     23923     23926     23927     23923     23926     23928
     23923     23926     23929     23924     23923     23925     23924     23923     23926
     23925     23923     23926     23926     23929     23930     23926     23929     23931
     23926     23929     23932     23927     23926     23928     23927     23926     23929
     23928     23926     23929     23929     23932     23933     23929     23932     23934
     23929     23932     23935     23930     23929     23931     23930     23929     23932
     23931     23929     23932     23932     23935     23936     23932     23935     23937
     23932     23935     23938     23933     23932     23934     23933     23932     23935
     23934     23932     23935     23935     23938     23939     23935     23938     23940
     23935     23938     23941     23936     23935     23937     23936     23935     23938
     23937     23935     23938     23939     23938     23940     23939     23938     23941
     23940     23938     23941     23942     23945     23946     23942     23947     23948
     23942     23947     23949     23942     23947     23951     23943     23942     23944
     23943     23942     23945     23943     23942     23947     23944     23942     23945
     23944     23942     23947     23945     23942     23947     23947     23949     23950
     23947     23951     23952     23947     23951     23953     23947     23951     23958
     23948     23947     23949     23948     23947     23951     23949     23947     23951
     23951     23958     23954     23952     23951     23953     23952     23951     23958
     23953     23951     23958     23954     23957     23959     23955     23954     23956
     23955     23954     23957     23955     23954     23958     23956     23954     23957
     23956     23954     23958     23957     23954     23958     23957     23959     23960
     23957     23959     23961     23957     23959     23962     23959     23962     23963
     23959     23962     23964     23959     23962     23970     23960     23959     23961
     23960     23959     23962     23961     23959     23962     23962     23964     23965
     23962     23970     23971     23962     23970     23972     23962     23970     23973
     23963     23962     23964     23963     23962     23970     23964     23962     23970
     23964     23965     23966     23964     23965     23967     23965     23967     23968
     23965     23967     23969     23965     23967     23979     23966     23965     23967
     23967     23979     23980     23967     23979     23981     23967     23979     23982
     23968     23967     23969     23968     23967     23979     23969     23967     23979
     23970     23973     23974     23971     23970     23972     23971     23970     23973
     23972     23970     23973     23973     23974     23975     23973     23974     23976
     23974     23976     23977     23974     23976     23978     23974     23976     24020
     23975     23974     23976     23976     24020     24021     23976     24020     24022
     23976     24020     24023     23977     23976     23978     23977     23976     24020
     23978     23976     24020     23979     23982     23983     23979     23982     23984
     23979     23982     23985     23980     23979     23981     23980     23979     23982
     23981     23979     23982     23982     23985     23986     23982     23985     23987
     23982     23985     23988     23983     23982     23984     23983     23982     23985
     23984     23982     23985     23985     23988     23989     23985     23988     23990
     23985     23988     23991     23986     23985     23987     23986     23985     23988
     23987     23985     23988     23988     23991     23992     23988     23991     23993
     23988     23991     23994     23989     23988     23990     23989     23988     23991
     23990     23988     23991     23991     23994     23995     23991     23994     23996
     23991     23994     23997     23992     23991     23993     23992     23991     23994
     23993     23991     23994     23994     23997     23998     23994     23997     23999
     23995     23994     23996     23995     23994     23997     23996     23994     23997
     23997     23999     24000     23997     23999     24001     23998     23997     23999
     23999     24001     24002     23999     24001     24003     23999     24001     24004
     24000     23999     24001     24001     24004     24005     24001     24004     24006
     24001     24004     24007     24002     24001     24003     24002     24001     24004
     24003     24001     24004     24004     24007     24008     24004     24007     24009
     24004     24007     24010     24005     24004     24006     24005     24004     24007
     24006     24004     24007     24007     24010     24011     24007     24010     24012
     24007     24010     24013     24008     24007     24009     24008     24007     24010
     24009     24007     24010     24010     24013     24014     24010     24013     24015
     24010     24013     24016     24011     24010     24012     24011     24010     24013
     24012     24010     24013     24013     24016     24017     24013     24016     24018
     24013     24016     24019     24014     24013     24015     24014     24013     24016
     24015     24013     24016     24017     24016     24018     24017     24016     24019
     24018     24016     24019     24020     24023     24024     24020     24023     24025
     24020     24023     24026     24021     24020     24022     24021     24020     24023
     24022     24020     24023     24023     24026     24027     24023     24026     24028
     24023     24026     24029     24024     24023     24025     24024     24023     24026
     24025     24023     24026     24026     24029     24030     24026     24029     24031
     24026     24029     24032     24027     24026     24028     24027     24026     24029
     24028     24026     24029     24029     24032     24033     24029     24032     24034
     24029     24032     24035     24030     24029     24031     24030     24029     24032
     24031     24029     24032     24032     24035     24036     24032     24035     24037
     24032     24035     24038     24033     24032     24034     24033     24032     24035
     24034     24032     24035     24035     24038     24039     24035     24038     24040
     24035     24038     24041     24036     24035     24037     24036     24035     24038
     24037     24035     24038     24038     24041     24042     24038     24041     24043
     24038     24041     24044     24039     24038     24040     24039     24038     24041
     24040     24038     24041     24041     24044     24045     24041     24044     24046
     24041     24044     24047     24042     24041     24043     24042     24041     24044
     24043     24041     24044     24044     24047     24048     24044     24047     24049
     24044     24047     24050     24045     24044     24046     24045     24044     24047
     24046     24044     24047     24047     24050     24051     24047     24050     24052
     24047     24050     24053     24048     24047     24049     24048     24047     24050
     24049     24047     24050     24050     24053     24054     24050     24053     24055
     24050     24053     24056     24051     24050     24052     24051     24050     24053
     24052     24050     24053     24053     24056     24057     24053     24056     24058
     24053     24056     24059     24054     24053     24055     24054     24053     24056
     24055     24053     24056     24056     24059     24060     24056     24059     24061
     24056     24059     24062     24057     24056     24058     24057     24056     24059
     24058     24056     24059     24060     24059     24061     24060     24059     24062
     24061     24059     24062     24063     24067     24068     24063     24067     24069
     24063     24067     24070     24064     24063     24065     24064     24063     24066
     24064     24063     24067     24065     24063     24066     24065     24063     24067
     24066     24063     24067     24067     24070     24071     24067     24070     24072
     24067     24070     24077     24068     24067     24069     24068     24067     24070
     24069     24067     24070     24070     24077     24073     24071     24070     24072
     24071     24070     24077     24072     24070     24077     24073     24076     24078
     24074     24073     24075     24074     24073     24076     24074     24073     24077
     24075     24073     24076     24075     24073     24077     24076     24073     24077
     24076     24078     24079     24076     24078     24080     24076     24078     24081
     24078     24081     24082     24078     24081     24083     24078     24081     24089
     24079     24078     24080     24079     24078     24081     24080     24078     24081
     24081     24083     24084     24081     24089     24090     24081     24089     24091
     24081     24089     24092     24082     24081     24083     24082     24081     24089
     24083     24081     24089     24083     24084     24085     24083     24084     24086
     24084     24086     24087     24084     24086     24088     24084     24086     24098
     24085     24084     24086     24086     24098     24099     24086     24098     24100
     24086     24098     24101     24087     24086     24088     24087     24086     24098
     24088     24086     24098     24089     24092     24093     24090     24089     24091
     24090     24089     24092     24091     24089     24092     24092     24093     24094
     24092     24093     24095     24093     24095     24096     24093     24095     24097
     24093     24095     24145     24094     24093     24095     24095     24145     24146
     24095     24145     24147     24095     24145     24148     24096     24095     24097
     24096     24095     24145     24097     24095     24145     24098     24101     24102
     24098     24101     24103     24098     24101     24104     24099     24098     24100
     24099     24098     24101     24100     24098     24101     24101     24104     24105
     24101     24104     24106     24101     24104     24107     24102     24101     24103
     24102     24101     24104     24103     24101     24104     24104     24107     24108
     24104     24107     24109     24104     24107     24110     24105     24104     24106
     24105     24104     24107     24106     24104     24107     24107     24110     24111
     24107     24110     24112     24107     24110     24113     24108     24107     24109
     24108     24107     24110     24109     24107     24110     24110     24113     24114
     24110     24113     24115     24110     24113     24116     24111     24110     24112
     24111     24110     24113     24112     24110     24113     24113     24116     24117
     24113     24116     24118     24114     24113     24115     24114     24113     24116
     24115     24113     24116     24116     24118     24119     24116     24118     24120
     24117     24116     24118     24118     24120     24121     24118     24120     24122
     24118     24120     24123     24119     24118     24120     24120     24123     24124
     24120     24123     24125     24120     24123     24126     24121     24120     24122
     24121     24120     24123     24122     24120     24123     24123     24126     24127
     24123     24126     24128     24123     24126     24129     24124     24123     24125
     24124     24123     24126     24125     24123     24126     24126     24129     24130
     24126     24129     24131     24126     24129     24132     24127     24126     24128
     24127     24126     24129     24128     24126     24129     24129     24132     24133
     24129     24132     24134     24129     24132     24135     24130     24129     24131
     24130     24129     24132     24131     24129     24132     24132     24135     24136
     24132     24135     24137     24132     24135     24138     24133     24132     24134
     24133     24132     24135     24134     24132     24135     24135     24138     24139
     24135     24138     24140     24135     24138     24141     24136     24135     24137
     24136     24135     24138     24137     24135     24138     24138     24141     24142
     24138     24141     24143     24138     24141     24144     24139     24138     24140
     24139     24138     24141     24140     24138     24141     24142     24141     24143
     24142     24141     24144     24143     24141     24144     24145     24148     24149
     24145     24148     24150     24145     24148     24151     24146     24145     24147
     24146     24145     24148     24147     24145     24148     24148     24151     24152
     24148     24151     24153     24148     24151     24154     24149     24148     24150
     24149     24148     24151     24150     24148     24151     24151     24154     24155
     24151     24154     24156     24151     24154     24157     24152     24151     24153
     24152     24151     24154     24153     24151     24154     24154     24157     24158
     24154     24157     24159     24154     24157     24160     24155     24154     24156
     24155     24154     24157     24156     24154     24157     24157     24160     24161
     24157     24160     24162     24157     24160     24163     24158     24157     24159
     24158     24157     24160     24159     24157     24160     24160     24163     24164
     24160     24163     24165     24160     24163     24166     24161     24160     24162
     24161     24160     24163     24162     24160     24163     24163     24166     24167
     24163     24166     24168     24163     24166     24169     24164     24163     24165
     24164     24163     24166     24165     24163     24166     24166     24169     24170
     24166     24169     24171     24166     24169     24172     24167     24166     24168
     24167     24166     24169     24168     24166     24169     24169     24172     24173
     24169     24172     24174     24169     24172     24175     24170     24169     24171
     24170     24169     24172     24171     24169     24172     24172     24175     24176
     24172     24175     24177     24172     24175     24178     24173     24172     24174
     24173     24172     24175     24174     24172     24175     24175     24178     24179
     24175     24178     24180     24175     24178     24181     24176     24175     24177
     24176     24175     24178     24177     24175     24178     24178     24181     24182
     24178     24181     24183     24178     24181     24184     24179     24178     24180
     24179     24178     24181     24180     24178     24181     24181     24184     24185
     24181     24184     24186     24181     24184     24187     24182     24181     24183
     24182     24181     24184     24183     24181     24184     24185     24184     24186
     24185     24184     24187     24186     24184     24187     24188     24192     24193
     24188     24192     24194     24188     24192     24195     24189     24188     24190
     24189     24188     24191     24189     24188     24192     24190     24188     24191
     24190     24188     24192     24191     24188     24192     24192     24195     24196
     24192     24195     24197     24192     24195     24202     24193     24192     24194
     24193     24192     24195     24194     24192     24195     24195     24202     24198
     24196     24195     24197     24196     24195     24202     24197     24195     24202
     24198     24201     24203     24199     24198     24200     24199     24198     24201
     24199     24198     24202     24200     24198     24201     24200     24198     24202
     24201     24198     24202     24201     24203     24204     24201     24203     24205
     24201     24203     24206     24203     24206     24207     24203     24206     24208
     24203     24206     24214     24204     24203     24205     24204     24203     24206
     24205     24203     24206     24206     24208     24209     24206     24214     24215
     24206     24214     24216     24206     24214     24217     24207     24206     24208
     24207     24206     24214     24208     24206     24214     24208     24209     24210
     24208     24209     24211     24209     24211     24212     24209     24211     24213
     24209     24211     24223     24210     24209     24211     24211     24223     24224
     24211     24223     24225     24211     24223     24226     24212     24211     24213
     24212     24211     24223     24213     24211     24223     24214     24217     24218
     24215     24214     24216     24215     24214     24217     24216     24214     24217
     24217     24218     24219     24217     24218     24220     24218     24220     24221
     24218     24220     24222     24218     24220     24267     24219     24218     24220
     24220     24267     24268     24220     24267     24269     24220     24267     24270
     24221     24220     24222     24221     24220     24267     24222     24220     24267
     24223     24226     24227     24223     24226     24228     24223     24226     24229
     24224     24223     24225     24224     24223     24226     24225     24223     24226
     24226     24229     24230     24226     24229     24231     24226     24229     24232
     24227     24226     24228     24227     24226     24229     24228     24226     24229
     24229     24232     24233     24229     24232     24234     24229     24232     24235
     24230     24229     24231     24230     24229     24232     24231     24229     24232
     24232     24235     24236     24232     24235     24237     24232     24235     24238
     24233     24232     24234     24233     24232     24235     24234     24232     24235
     24235     24238     24239     24235     24238     24240     24235     24238     24241
     24236     24235     24237     24236     24235     24238     24237     24235     24238
     24238     24241     24242     24238     24241     24243     24238     24241     24246
     24239     24238     24240     24239     24238     24241     24240     24238     24241
     24241     24243     24244     24241     24243     24245     24241     24243     24246
     24241     24246     24243     24241     24246     24247     24241     24246     24248
     24242     24241     24243     24242     24241     24246     24243     24241     24246
     24243     24246     24247     24243     24246     24248     24244     24243     24245
     24244     24243     24246     24245     24243     24246     24246     24248     24249
     24246     24248     24250     24246     24248     24251     24247     24246     24248
     24248     24251     24252     24248     24251     24253     24248     24251     24254
     24249     24248     24250     24249     24248     24251     24250     24248     24251
     24251     24254     24255     24251     24254     24256     24251     24254     24257
     24252     24251     24253     24252     24251     24254     24253     24251     24254
     24254     24257     24258     24254     24257     24259     24254     24257     24260
     24255     24254     24256     24255     24254     24257     24256     24254     24257
     24257     24260     24261     24257     24260     24262     24257     24260     24263
     24258     24257     24259     24258     24257     24260     24259     24257     24260
     24260     24263     24264     24260     24263     24265     24260     24263     24266
     24261     24260     24262     24261     24260     24263     24262     24260     24263
     24264     24263     24265     24264     24263     24266     24265     24263     24266
     24267     24270     24271     24267     24270     24272     24267     24270     24273
     24268     24267     24269     24268     24267     24270     24269     24267     24270
     24270     24273     24274     24270     24273     24275     24270     24273     24276
     24271     24270     24272     24271     24270     24273     24272     24270     24273
     24273     24276     24277     24273     24276     24278     24273     24276     24279
     24274     24273     24275     24274     24273     24276     24275     24273     24276
     24276     24279     24280     24276     24279     24281     24276     24279     24282
     24277     24276     24278     24277     24276     24279     24278     24276     24279
     24279     24282     24283     24279     24282     24284     24279     24282     24285
     24280     24279     24281     24280     24279     24282     24281     24279     24282
     24282     24285     24286     24282     24285     24287     24282     24285     24288
     24283     24282     24284     24283     24282     24285     24284     24282     24285
     24285     24288     24289     24285     24288     24290     24285     24288     24291
     24286     24285     24287     24286     24285     24288     24287     24285     24288
     24288     24291     24292     24288     24291     24293     24288     24291     24294
     24289     24288     24290     24289     24288     24291     24290     24288     24291
     24291     24294     24295     24291     24294     24296     24291     24294     24297
     24292     24291     24293     24292     24291     24294     24293     24291     24294
     24294     24297     24298     24294     24297     24299     24294     24297     24300
     24295     24294     24296     24295     24294     24297     24296     24294     24297
     24297     24300     24301     24297     24300     24302     24297     24300     24303
     24298     24297     24299     24298     24297     24300     24299     24297     24300
     24300     24303     24304     24300     24303     24305     24300     24303     24306
     24301     24300     24302     24301     24300     24303     24302     24300     24303
     24303     24306     24307     24303     24306     24308     24303     24306     24309
     24304     24303     24305     24304     24303     24306     24305     24303     24306
     24307     24306     24308     24307     24306     24309     24308     24306     24309
     24310     24314     24315     24310     24314     24316     24310     24314     24317
     24311     24310     24312     24311     24310     24313     24311     24310     24314
     24312     24310     24313     24312     24310     24314     24313     24310     24314
     24314     24317     24318     24314     24317     24319     24314     24317     24324
     24315     24314     24316     24315     24314     24317     24316     24314     24317
     24317     24324     24320     24318     24317     24319     24318     24317     24324
     24319     24317     24324     24320     24323     24325     24321     24320     24322
     24321     24320     24323     24321     24320     24324     24322     24320     24323
     24322     24320     24324     24323     24320     24324     24323     24325     24326
     24323     24325     24327     24323     24325     24328     24325     24328     24329
     24325     24328     24330     24325     24328     24336     24326     24325     24327
     24326     24325     24328     24327     24325     24328     24328     24330     24331
     24328     24336     24337     24328     24336     24338     24328     24336     24339
     24329     24328     24330     24329     24328     24336     24330     24328     24336
     24330     24331     24332     24330     24331     24333     24331     24333     24334
     24331     24333     24335     24331     24333     24345     24332     24331     24333
     24333     24345     24346     24333     24345     24347     24333     24345     24348
     24334     24333     24335     24334     24333     24345     24335     24333     24345
     24336     24339     24340     24337     24336     24338     24337     24336     24339
     24338     24336     24339     24339     24340     24341     24339     24340     24342
     24340     24342     24343     24340     24342     24344     24340     24342     24392
     24341     24340     24342     24342     24392     24393     24342     24392     24394
     24342     24392     24395     24343     24342     24344     24343     24342     24392
     24344     24342     24392     24345     24348     24349     24345     24348     24350
     24345     24348     24351     24346     24345     24347     24346     24345     24348
     24347     24345     24348     24348     24351     24352     24348     24351     24353
     24348     24351     24354     24349     24348     24350     24349     24348     24351
     24350     24348     24351     24351     24354     24355     24351     24354     24356
     24351     24354     24357     24352     24351     24353     24352     24351     24354
     24353     24351     24354     24354     24357     24358     24354     24357     24359
     24354     24357     24360     24355     24354     24356     24355     24354     24357
     24356     24354     24357     24357     24360     24361     24357     24360     24362
     24357     24360     24363     24358     24357     24359     24358     24357     24360
     24359     24357     24360     24360     24363     24364     24360     24363     24365
     24361     24360     24362     24361     24360     24363     24362     24360     24363
     24363     24365     24366     24363     24365     24367     24364     24363     24365
     24365     24367     24368     24365     24367     24369     24365     24367     24370
     24366     24365     24367     24367     24370     24371     24367     24370     24372
     24367     24370     24373     24368     24367     24369     24368     24367     24370
     24369     24367     24370     24370     24373     24374     24370     24373     24375
     24370     24373     24376     24371     24370     24372     24371     24370     24373
     24372     24370     24373     24373     24376     24377     24373     24376     24378
     24373     24376     24379     24374     24373     24375     24374     24373     24376
     24375     24373     24376     24376     24379     24380     24376     24379     24381
     24376     24379     24382     24377     24376     24378     24377     24376     24379
     24378     24376     24379     24379     24382     24383     24379     24382     24384
     24379     24382     24385     24380     24379     24381     24380     24379     24382
     24381     24379     24382     24382     24385     24386     24382     24385     24387
     24382     24385     24388     24383     24382     24384     24383     24382     24385
     24384     24382     24385     24385     24388     24389     24385     24388     24390
     24385     24388     24391     24386     24385     24387     24386     24385     24388
     24387     24385     24388     24389     24388     24390     24389     24388     24391
     24390     24388     24391     24392     24395     24396     24392     24395     24397
     24392     24395     24398     24393     24392     24394     24393     24392     24395
     24394     24392     24395     24395     24398     24399     24395     24398     24400
     24395     24398     24401     24396     24395     24397     24396     24395     24398
     24397     24395     24398     24398     24401     24402     24398     24401     24403
     24398     24401     24404     24399     24398     24400     24399     24398     24401
     24400     24398     24401     24401     24404     24405     24401     24404     24406
     24401     24404     24407     24402     24401     24403     24402     24401     24404
     24403     24401     24404     24404     24407     24408     24404     24407     24409
     24404     24407     24410     24405     24404     24406     24405     24404     24407
     24406     24404     24407     24407     24410     24411     24407     24410     24412
     24407     24410     24413     24408     24407     24409     24408     24407     24410
     24409     24407     24410     24410     24413     24414     24410     24413     24415
     24410     24413     24416     24411     24410     24412     24411     24410     24413
     24412     24410     24413     24413     24416     24417     24413     24416     24418
     24413     24416     24419     24414     24413     24415     24414     24413     24416
     24415     24413     24416     24416     24419     24420     24416     24419     24421
     24416     24419     24422     24417     24416     24418     24417     24416     24419
     24418     24416     24419     24419     24422     24423     24419     24422     24424
     24419     24422     24425     24420     24419     24421     24420     24419     24422
     24421     24419     24422     24422     24425     24426     24422     24425     24427
     24422     24425     24428     24423     24422     24424     24423     24422     24425
     24424     24422     24425     24425     24428     24429     24425     24428     24430
     24425     24428     24431     24426     24425     24427     24426     24425     24428
     24427     24425     24428     24428     24431     24432     24428     24431     24433
     24428     24431     24434     24429     24428     24430     24429     24428     24431
     24430     24428     24431     24432     24431     24433     24432     24431     24434
     24433     24431     24434     24435     24439     24440     24435     24439     24441
     24435     24439     24442     24436     24435     24437     24436     24435     24438
     24436     24435     24439     24437     24435     24438     24437     24435     24439
     24438     24435     24439     24439     24442     24443     24439     24442     24444
     24439     24442     24449     24440     24439     24441     24440     24439     24442
     24441     24439     24442     24442     24449     24445     24443     24442     24444
     24443     24442     24449     24444     24442     24449     24445     24448     24450
     24446     24445     24447     24446     24445     24448     24446     24445     24449
     24447     24445     24448     24447     24445     24449     24448     24445     24449
     24448     24450     24451     24448     24450     24452     24448     24450     24453
     24450     24453     24454     24450     24453     24455     24450     24453     24461
     24451     24450     24452     24451     24450     24453     24452     24450     24453
     24453     24455     24456     24453     24461     24462     24453     24461     24463
     24453     24461     24464     24454     24453     24455     24454     24453     24461
     24455     24453     24461     24455     24456     24457     24455     24456     24458
     24456     24458     24459     24456     24458     24460     24456     24458     24470
     24457     24456     24458     24458     24470     24471     24458     24470     24472
     24458     24470     24473     24459     24458     24460     24459     24458     24470
     24460     24458     24470     24461     24464     24465     24462     24461     24463
     24462     24461     24464     24463     24461     24464     24464     24465     24466
     24464     24465     24467     24465     24467     24468     24465     24467     24469
     24465     24467     24514     24466     24465     24467     24467     24514     24515
     24467     24514     24516     24467     24514     24517     24468     24467     24469
     24468     24467     24514     24469     24467     24514     24470     24473     24474
     24470     24473     24475     24470     24473     24476     24471     24470     24472
     24471     24470     24473     24472     24470     24473     24473     24476     24477
     24473     24476     24478     24473     24476     24479     24474     24473     24475
     24474     24473     24476     24475     24473     24476     24476     24479     24480
     24476     24479     24481     24476     24479     24482     24477     24476     24478
     24477     24476     24479     24478     24476     24479     24479     24482     24483
     24479     24482     24484     24479     24482     24485     24480     24479     24481
     24480     24479     24482     24481     24479     24482     24482     24485     24486
     24482     24485     24487     24482     24485     24488     24483     24482     24484
     24483     24482     24485     24484     24482     24485     24485     24488     24489
     24485     24488     24490     24485     24488     24493     24486     24485     24487
     24486     24485     24488     24487     24485     24488     24488     24490     24491
     24488     24490     24492     24488     24490     24493     24488     24493     24490
     24488     24493     24494     24488     24493     24495     24489     24488     24490
     24489     24488     24493     24490     24488     24493     24490     24493     24494
     24490     24493     24495     24491     24490     24492     24491     24490     24493
     24492     24490     24493     24493     24495     24496     24493     24495     24497
     24493     24495     24498     24494     24493     24495     24495     24498     24499
     24495     24498     24500     24495     24498     24501     24496     24495     24497
     24496     24495     24498     24497     24495     24498     24498     24501     24502
     24498     24501     24503     24498     24501     24504     24499     24498     24500
     24499     24498     24501     24500     24498     24501     24501     24504     24505
     24501     24504     24506     24501     24504     24507     24502     24501     24503
     24502     24501     24504     24503     24501     24504     24504     24507     24508
     24504     24507     24509     24504     24507     24510     24505     24504     24506
     24505     24504     24507     24506     24504     24507     24507     24510     24511
     24507     24510     24512     24507     24510     24513     24508     24507     24509
     24508     24507     24510     24509     24507     24510     24511     24510     24512
     24511     24510     24513     24512     24510     24513     24514     24517     24518
     24514     24517     24519     24514     24517     24520     24515     24514     24516
     24515     24514     24517     24516     24514     24517     24517     24520     24521
     24517     24520     24522     24517     24520     24523     24518     24517     24519
     24518     24517     24520     24519     24517     24520     24520     24523     24524
     24520     24523     24525     24520     24523     24526     24521     24520     24522
     24521     24520     24523     24522     24520     24523     24523     24526     24527
     24523     24526     24528     24523     24526     24529     24524     24523     24525
     24524     24523     24526     24525     24523     24526     24526     24529     24530
     24526     24529     24531     24526     24529     24532     24527     24526     24528
     24527     24526     24529     24528     24526     24529     24529     24532     24533
     24529     24532     24534     24529     24532     24535     24530     24529     24531
     24530     24529     24532     24531     24529     24532     24532     24535     24536
     24532     24535     24537     24532     24535     24538     24533     24532     24534
     24533     24532     24535     24534     24532     24535     24535     24538     24539
     24535     24538     24540     24535     24538     24541     24536     24535     24537
     24536     24535     24538     24537     24535     24538     24538     24541     24542
     24538     24541     24543     24538     24541     24544     24539     24538     24540
     24539     24538     24541     24540     24538     24541     24541     24544     24545
     24541     24544     24546     24541     24544     24547     24542     24541     24543
     24542     24541     24544     24543     24541     24544     24544     24547     24548
     24544     24547     24549     24544     24547     24550     24545     24544     24546
     24545     24544     24547     24546     24544     24547     24547     24550     24551
     24547     24550     24552     24547     24550     24553     24548     24547     24549
     24548     24547     24550     24549     24547     24550     24550     24553     24554
     24550     24553     24555     24550     24553     24556     24551     24550     24552
     24551     24550     24553     24552     24550     24553     24554     24553     24555
     24554     24553     24556     24555     24553     24556     24557     24561     24562
     24557     24561     24563     24557     24561     24564     24558     24557     24559
     24558     24557     24560     24558     24557     24561     24559     24557     24560
     24559     24557     24561     24560     24557     24561     24561     24564     24565
     24561     24564     24566     24561     24564     24571     24562     24561     24563
     24562     24561     24564     24563     24561     24564     24564     24571     24567
     24565     24564     24566     24565     24564     24571     24566     24564     24571
     24567     24570     24572     24568     24567     24569     24568     24567     24570
     24568     24567     24571     24569     24567     24570     24569     24567     24571
     24570     24567     24571     24570     24572     24573     24570     24572     24574
     24570     24572     24575     24572     24575     24576     24572     24575     24577
     24572     24575     24583     24573     24572     24574     24573     24572     24575
     24574     24572     24575     24575     24577     24578     24575     24583     24584
     24575     24583     24585     24575     24583     24586     24576     24575     24577
     24576     24575     24583     24577     24575     24583     24577     24578     24579
     24577     24578     24580     24578     24580     24581     24578     24580     24582
     24578     24580     24592     24579     24578     24580     24580     24592     24593
     24580     24592     24594     24580     24592     24595     24581     24580     24582
     24581     24580     24592     24582     24580     24592     24583     24586     24587
     24584     24583     24585     24584     24583     24586     24585     24583     24586
     24586     24587     24588     24586     24587     24589     24587     24589     24590
     24587     24589     24591     24587     24589     24636     24588     24587     24589
     24589     24636     24637     24589     24636     24638     24589     24636     24639
     24590     24589     24591     24590     24589     24636     24591     24589     24636
     24592     24595     24596     24592     24595     24597     24592     24595     24598
     24593     24592     24594     24593     24592     24595     24594     24592     24595
     24595     24598     24599     24595     24598     24600     24595     24598     24601
     24596     24595     24597     24596     24595     24598     24597     24595     24598
     24598     24601     24602     24598     24601     24603     24598     24601     24604
     24599     24598     24600     24599     24598     24601     24600     24598     24601
     24601     24604     24605     24601     24604     24606     24601     24604     24607
     24602     24601     24603     24602     24601     24604     24603     24601     24604
     24604     24607     24608     24604     24607     24609     24604     24607     24610
     24605     24604     24606     24605     24604     24607     24606     24604     24607
     24607     24610     24611     24607     24610     24612     24607     24610     24615
     24608     24607     24609     24608     24607     24610     24609     24607     24610
     24610     24612     24613     24610     24612     24614     24610     24612     24615
     24610     24615     24612     24610     24615     24616     24610     24615     24617
     24611     24610     24612     24611     24610     24615     24612     24610     24615
     24612     24615     24616     24612     24615     24617     24613     24612     24614
     24613     24612     24615     24614     24612     24615     24615     24617     24618
     24615     24617     24619     24615     24617     24620     24616     24615     24617
     24617     24620     24621     24617     24620     24622     24617     24620     24623
     24618     24617     24619     24618     24617     24620     24619     24617     24620
     24620     24623     24624     24620     24623     24625     24620     24623     24626
     24621     24620     24622     24621     24620     24623     24622     24620     24623
     24623     24626     24627     24623     24626     24628     24623     24626     24629
     24624     24623     24625     24624     24623     24626     24625     24623     24626
     24626     24629     24630     24626     24629     24631     24626     24629     24632
     24627     24626     24628     24627     24626     24629     24628     24626     24629
     24629     24632     24633     24629     24632     24634     24629     24632     24635
     24630     24629     24631     24630     24629     24632     24631     24629     24632
     24633     24632     24634     24633     24632     24635     24634     24632     24635
     24636     24639     24640     24636     24639     24641     24636     24639     24642
     24637     24636     24638     24637     24636     24639     24638     24636     24639
     24639     24642     24643     24639     24642     24644     24639     24642     24645
     24640     24639     24641     24640     24639     24642     24641     24639     24642
     24642     24645     24646     24642     24645     24647     24642     24645     24648
     24643     24642     24644     24643     24642     24645     24644     24642     24645
     24645     24648     24649     24645     24648     24650     24645     24648     24651
     24646     24645     24647     24646     24645     24648     24647     24645     24648
     24648     24651     24652     24648     24651     24653     24648     24651     24654
     24649     24648     24650     24649     24648     24651     24650     24648     24651
     24651     24654     24655     24651     24654     24656     24651     24654     24657
     24652     24651     24653     24652     24651     24654     24653     24651     24654
     24654     24657     24658     24654     24657     24659     24654     24657     24660
     24655     24654     24656     24655     24654     24657     24656     24654     24657
     24657     24660     24661     24657     24660     24662     24657     24660     24663
     24658     24657     24659     24658     24657     24660     24659     24657     24660
     24660     24663     24664     24660     24663     24665     24660     24663     24666
     24661     24660     24662     24661     24660     24663     24662     24660     24663
     24663     24666     24667     24663     24666     24668     24663     24666     24669
     24664     24663     24665     24664     24663     24666     24665     24663     24666
     24666     24669     24670     24666     24669     24671     24666     24669     24672
     24667     24666     24668     24667     24666     24669     24668     24666     24669
     24669     24672     24673     24669     24672     24674     24669     24672     24675
     24670     24669     24671     24670     24669     24672     24671     24669     24672
     24673     24672     24674     24673     24672     24675     24674     24672     24675
     24676     24680     24681     24676     24680     24682     24676     24680     24683
     24677     24676     24678     24677     24676     24679     24677     24676     24680
     24678     24676     24679     24678     24676     24680     24679     24676     24680
     24680     24683     24684     24680     24683     24685     24680     24683     24690
     24681     24680     24682     24681     24680     24683     24682     24680     24683
     24683     24690     24686     24684     24683     24685     24684     24683     24690
     24685     24683     24690     24686     24689     24691     24687     24686     24688
     24687     24686     24689     24687     24686     24690     24688     24686     24689
     24688     24686     24690     24689     24686     24690     24689     24691     24692
     24689     24691     24693     24689     24691     24694     24691     24694     24695
     24691     24694     24696     24691     24694     24702     24692     24691     24693
     24692     24691     24694     24693     24691     24694     24694     24696     24697
     24694     24702     24703     24694     24702     24704     24694     24702     24705
     24695     24694     24696     24695     24694     24702     24696     24694     24702
     24696     24697     24698     24696     24697     24699     24697     24699     24700
     24697     24699     24701     24697     24699     24711     24698     24697     24699
     24699     24711     24712     24699     24711     24713     24699     24711     24714
     24700     24699     24701     24700     24699     24711     24701     24699     24711
     24702     24705     24706     24703     24702     24704     24703     24702     24705
     24704     24702     24705     24705     24706     24707     24705     24706     24708
     24706     24708     24709     24706     24708     24710     24706     24708     24755
     24707     24706     24708     24708     24755     24756     24708     24755     24757
     24708     24755     24758     24709     24708     24710     24709     24708     24755
     24710     24708     24755     24711     24714     24715     24711     24714     24716
     24711     24714     24717     24712     24711     24713     24712     24711     24714
     24713     24711     24714     24714     24717     24718     24714     24717     24719
     24714     24717     24720     24715     24714     24716     24715     24714     24717
     24716     24714     24717     24717     24720     24721     24717     24720     24722
     24717     24720     24723     24718     24717     24719     24718     24717     24720
     24719     24717     24720     24720     24723     24724     24720     24723     24725
     24720     24723     24726     24721     24720     24722     24721     24720     24723
     24722     24720     24723     24723     24726     24727     24723     24726     24728
     24723     24726     24729     24724     24723     24725     24724     24723     24726
     24725     24723     24726     24726     24729     24730     24726     24729     24731
     24726     24729     24734     24727     24726     24728     24727     24726     24729
     24728     24726     24729     24729     24731     24732     24729     24731     24733
     24729     24731     24734     24729     24734     24731     24729     24734     24735
     24729     24734     24736     24730     24729     24731     24730     24729     24734
     24731     24729     24734     24731     24734     24735     24731     24734     24736
     24732     24731     24733     24732     24731     24734     24733     24731     24734
     24734     24736     24737     24734     24736     24738     24734     24736     24739
     24735     24734     24736     24736     24739     24740     24736     24739     24741
     24736     24739     24742     24737     24736     24738     24737     24736     24739
     24738     24736     24739     24739     24742     24743     24739     24742     24744
     24739     24742     24745     24740     24739     24741     24740     24739     24742
     24741     24739     24742     24742     24745     24746     24742     24745     24747
     24742     24745     24748     24743     24742     24744     24743     24742     24745
     24744     24742     24745     24745     24748     24749     24745     24748     24750
     24745     24748     24751     24746     24745     24747     24746     24745     24748
     24747     24745     24748     24748     24751     24752     24748     24751     24753
     24748     24751     24754     24749     24748     24750     24749     24748     24751
     24750     24748     24751     24752     24751     24753     24752     24751     24754
     24753     24751     24754     24755     24758     24759     24755     24758     24760
     24755     24758     24761     24756     24755     24757     24756     24755     24758
     24757     24755     24758     24758     24761     24762     24758     24761     24763
     24758     24761     24764     24759     24758     24760     24759     24758     24761
     24760     24758     24761     24761     24764     24765     24761     24764     24766
     24761     24764     24767     24762     24761     24763     24762     24761     24764
     24763     24761     24764     24764     24767     24768     24764     24767     24769
     24764     24767     24770     24765     24764     24766     24765     24764     24767
     24766     24764     24767     24767     24770     24771     24767     24770     24772
     24767     24770     24773     24768     24767     24769     24768     24767     24770
     24769     24767     24770     24770     24773     24774     24770     24773     24775
     24770     24773     24776     24771     24770     24772     24771     24770     24773
     24772     24770     24773     24773     24776     24777     24773     24776     24778
     24773     24776     24779     24774     24773     24775     24774     24773     24776
     24775     24773     24776     24776     24779     24780     24776     24779     24781
     24776     24779     24782     24777     24776     24778     24777     24776     24779
     24778     24776     24779     24779     24782     24783     24779     24782     24784
     24779     24782     24785     24780     24779     24781     24780     24779     24782
     24781     24779     24782     24782     24785     24786     24782     24785     24787
     24782     24785     24788     24783     24782     24784     24783     24782     24785
     24784     24782     24785     24785     24788     24789     24785     24788     24790
     24785     24788     24791     24786     24785     24787     24786     24785     24788
     24787     24785     24788     24788     24791     24792     24788     24791     24793
     24788     24791     24794     24789     24788     24790     24789     24788     24791
     24790     24788     24791     24791     24794     24795     24791     24794     24796
     24791     24794     24797     24792     24791     24793     24792     24791     24794
     24793     24791     24794     24795     24794     24796     24795     24794     24797
     24796     24794     24797     24798     24802     24803     24798     24802     24804
     24798     24802     24805     24799     24798     24800     24799     24798     24801
     24799     24798     24802     24800     24798     24801     24800     24798     24802
     24801     24798     24802     24802     24805     24806     24802     24805     24807
     24802     24805     24812     24803     24802     24804     24803     24802     24805
     24804     24802     24805     24805     24812     24808     24806     24805     24807
     24806     24805     24812     24807     24805     24812     24808     24811     24813
     24809     24808     24810     24809     24808     24811     24809     24808     24812
     24810     24808     24811     24810     24808     24812     24811     24808     24812
     24811     24813     24814     24811     24813     24815     24811     24813     24816
     24813     24816     24817     24813     24816     24818     24813     24816     24824
     24814     24813     24815     24814     24813     24816     24815     24813     24816
     24816     24818     24819     24816     24824     24825     24816     24824     24826
     24816     24824     24827     24817     24816     24818     24817     24816     24824
     24818     24816     24824     24818     24819     24820     24818     24819     24821
     24819     24821     24822     24819     24821     24823     24819     24821     24833
     24820     24819     24821     24821     24833     24834     24821     24833     24835
     24821     24833     24836     24822     24821     24823     24822     24821     24833
     24823     24821     24833     24824     24827     24828     24825     24824     24826
     24825     24824     24827     24826     24824     24827     24827     24828     24829
     24827     24828     24830     24828     24830     24831     24828     24830     24832
     24828     24830     24877     24829     24828     24830     24830     24877     24878
     24830     24877     24879     24830     24877     24880     24831     24830     24832
     24831     24830     24877     24832     24830     24877     24833     24836     24837
     24833     24836     24838     24833     24836     24839     24834     24833     24835
     24834     24833     24836     24835     24833     24836     24836     24839     24840
     24836     24839     24841     24836     24839     24842     24837     24836     24838
     24837     24836     24839     24838     24836     24839     24839     24842     24843
     24839     24842     24844     24839     24842     24845     24840     24839     24841
     24840     24839     24842     24841     24839     24842     24842     24845     24846
     24842     24845     24847     24842     24845     24848     24843     24842     24844
     24843     24842     24845     24844     24842     24845     24845     24848     24849
     24845     24848     24850     24845     24848     24851     24846     24845     24847
     24846     24845     24848     24847     24845     24848     24848     24851     24852
     24848     24851     24853     24848     24851     24856     24849     24848     24850
     24849     24848     24851     24850     24848     24851     24851     24853     24854
     24851     24853     24855     24851     24853     24856     24851     24856     24853
     24851     24856     24857     24851     24856     24858     24852     24851     24853
     24852     24851     24856     24853     24851     24856     24853     24856     24857
     24853     24856     24858     24854     24853     24855     24854     24853     24856
     24855     24853     24856     24856     24858     24859     24856     24858     24860
     24856     24858     24861     24857     24856     24858     24858     24861     24862
     24858     24861     24863     24858     24861     24864     24859     24858     24860
     24859     24858     24861     24860     24858     24861     24861     24864     24865
     24861     24864     24866     24861     24864     24867     24862     24861     24863
     24862     24861     24864     24863     24861     24864     24864     24867     24868
     24864     24867     24869     24864     24867     24870     24865     24864     24866
     24865     24864     24867     24866     24864     24867     24867     24870     24871
     24867     24870     24872     24867     24870     24873     24868     24867     24869
     24868     24867     24870     24869     24867     24870     24870     24873     24874
     24870     24873     24875     24870     24873     24876     24871     24870     24872
     24871     24870     24873     24872     24870     24873     24874     24873     24875
     24874     24873     24876     24875     24873     24876     24877     24880     24881
     24877     24880     24882     24877     24880     24883     24878     24877     24879
     24878     24877     24880     24879     24877     24880     24880     24883     24884
     24880     24883     24885     24880     24883     24886     24881     24880     24882
     24881     24880     24883     24882     24880     24883     24883     24886     24887
     24883     24886     24888     24883     24886     24889     24884     24883     24885
     24884     24883     24886     24885     24883     24886     24886     24889     24890
     24886     24889     24891     24886     24889     24892     24887     24886     24888
     24887     24886     24889     24888     24886     24889     24889     24892     24893
     24889     24892     24894     24889     24892     24895     24890     24889     24891
     24890     24889     24892     24891     24889     24892     24892     24895     24896
     24892     24895     24897     24892     24895     24898     24893     24892     24894
     24893     24892     24895     24894     24892     24895     24895     24898     24899
     24895     24898     24900     24895     24898     24901     24896     24895     24897
     24896     24895     24898     24897     24895     24898     24898     24901     24902
     24898     24901     24903     24898     24901     24904     24899     24898     24900
     24899     24898     24901     24900     24898     24901     24901     24904     24905
     24901     24904     24906     24901     24904     24907     24902     24901     24903
     24902     24901     24904     24903     24901     24904     24904     24907     24908
     24904     24907     24909     24904     24907     24910     24905     24904     24906
     24905     24904     24907     24906     24904     24907     24907     24910     24911
     24907     24910     24912     24907     24910     24913     24908     24907     24909
     24908     24907     24910     24909     24907     24910     24910     24913     24914
     24910     24913     24915     24910     24913     24916     24911     24910     24912
     24911     24910     24913     24912     24910     24913     24914     24913     24915
     24914     24913     24916     24915     24913     24916

     67656 !NPHI: dihedrals
         1         5         8         9         1         5         8        10
         1         5         8        15         2         1         5         6
         2         1         5         7         2         1         5         8
         3         1         5         6         3         1         5         7
         3         1         5         8         4         1         5         6
         4         1         5         7         4         1         5         8
         5         8        15        11         6         5         8         9
         6         5         8        10         6         5         8        15
         7         5         8         9         7         5         8        10
         7         5         8        15         8        15        11        12
         8        15        11        13         8        15        11        14
         9         8        15        11        10         8        15        11
        11        14        16        17        11        14        16        18
        11        14        16        19        12        11        14        16
        13        11        14        16        14        16        19        20
        14        16        19        21        14        16        19        27
        15        11        14        16        16        19        21        22
        16        19        27        28        16        19        27        29
        16        19        27        30        17        16        19        20
        17        16        19        21        17        16        19        27
        18        16        19        20        18        16        19        21
        18        16        19        27        19        21        22        23
        19        21        22        24        19        27        30        31
        20        19        21        22        20        19        27        28
        20        19        27        29        20        19        27        30
        21        19        27        28        21        19        27        29
        21        19        27        30        21        22        24        25
        21        22        24        26        21        22        24        36
        22        21        19        27        22        24        36        37
        22        24        36        38        22        24        36        39
        23        22        24        25        23        22        24        26
        23        22        24        36        24        36        39        40
        24        36        39        41        24        36        39        42
        25        24        36        37        25        24        36        38
        25        24        36        39        26        24        36        37
        26        24        36        38        26        24        36        39
        27        30        31        32        27        30        31        33
        28        27        30        31        29        27        30        31
        30        31        33        34        30        31        33        35
        30        31        33        80        31        33        80        81
        31        33        80        82        31        33        80        83
        32        31        33        34        32        31        33        35
        32        31        33        80        33        80        83        84
        33        80        83        85        33        80        83        86
        34        33        80        81        34        33        80        82
        34        33        80        83        35        33        80        81
        35        33        80        82        35        33        80        83
        36        39        42        43        36        39        42        44
        36        39        42        45        37        36        39        40
        37        36        39        41        37        36        39        42
        38        36        39        40        38        36        39        41
        38        36        39        42        39        42        45        46
        39        42        45        47        39        42        45        48
        40        39        42        43        40        39        42        44
        40        39        42        45        41        39        42        43
        41        39        42        44        41        39        42        45
        42        45        48        49        42        45        48        50
        42        45        48        51        43        42        45        46
        43        42        45        47        43        42        45        48
        44        42        45        46        44        42        45        47
        44        42        45        48        45        48        51        52
        45        48        51        53        45        48        51        54
        46        45        48        49        46        45        48        50
        46        45        48        51        47        45        48        49
        47        45        48        50        47        45        48        51
        48        51        54        55        48        51        54        56
        48        51        54        59        49        48        51        52
        49        48        51        53        49        48        51        54
        50        48        51        52        50        48        51        53
        50        48        51        54        51        54        56        57
        51        54        56        58        51        54        56        59
        51        54        59        56        51        54        59        60
        51        54        59        61        52        51        54        55
        52        51        54        56        52        51        54        59
        53        51        54        55        53        51        54        56
        53        51        54        59        54        56        59        60
        54        56        59        61        54        59        56        57
        54        59        56        58        54        59        61        62
        54        59        61        63        54        59        61        64
        55        54        56        57        55        54        56        58
        55        54        56        59        55        54        59        56
        55        54        59        60        55        54        59        61
        56        54        59        60        56        54        59        61
        56        59        61        62        56        59        61        63
        56        59        61        64        57        56        54        59
        57        56        59        60        57        56        59        61
        58        56        54        59        58        56        59        60
        58        56        59        61        59        61        64        65
        59        61        64        66        59        61        64        67
        60        59        61        62        60        59        61        63
        60        59        61        64        61        64        67        68
        61        64        67        69        61        64        67        70
        62        61        64        65        62        61        64        66
        62        61        64        67        63        61        64        65
        63        61        64        66        63        61        64        67
        64        67        70        71        64        67        70        72
        64        67        70        73        65        64        67        68
        65        64        67        69        65        64        67        70
        66        64        67        68        66        64        67        69
        66        64        67        70        67        70        73        74
        67        70        73        75        67        70        73        76
        68        67        70        71        68        67        70        72
        68        67        70        73        69        67        70        71
        69        67        70        72        69        67        70        73
        70        73        76        77        70        73        76        78
        70        73        76        79        71        70        73        74
        71        70        73        75        71        70        73        76
        72        70        73        74        72        70        73        75
        72        70        73        76        74        73        76        77
        74        73        76        78        74        73        76        79
        75        73        76        77        75        73        76        78
        75        73        76        79        80        83        86        87
        80        83        86        88        80        83        86        89
        81        80        83        84        81        80        83        85
        81        80        83        86        82        80        83        84
        82        80        83        85        82        80        83        86
        83        86        89        90        83        86        89        91
        83        86        89        92        84        83        86        87
        84        83        86        88        84        83        86        89
        85        83        86        87        85        83        86        88
        85        83        86        89        86        89        92        93
        86        89        92        94        86        89        92        95
        87        86        89        90        87        86        89        91
        87        86        89        92        88        86        89        90
        88        86        89        91        88        86        89        92
        89        92        95        96        89        92        95        97
        89        92        95        98        90        89        92        93
        90        89        92        94        90        89        92        95
        91        89        92        93        91        89        92        94
        91        89        92        95        92        95        98        99
        92        95        98       100        92        95        98       101
        93        92        95        96        93        92        95        97
        93        92        95        98        94        92        95        96
        94        92        95        97        94        92        95        98
        95        98       101       102        95        98       101       103
        95        98       101       104        96        95        98        99
        96        95        98       100        96        95        98       101
        97        95        98        99        97        95        98       100
        97        95        98       101        98       101       104       105
        98       101       104       106        98       101       104       107
        99        98       101       102        99        98       101       103
        99        98       101       104       100        98       101       102
       100        98       101       103       100        98       101       104
       101       104       107       108       101       104       107       109
       101       104       107       110       102       101       104       105
       102       101       104       106       102       101       104       107
       103       101       104       105       103       101       104       106
       103       101       104       107       104       107       110       111
       104       107       110       112       104       107       110       113
       105       104       107       108       105       104       107       109
       105       104       107       110       106       104       107       108
       106       104       107       109       106       104       107       110
       107       110       113       114       107       110       113       115
       107       110       113       116       108       107       110       111
       108       107       110       112       108       107       110       113
       109       107       110       111       109       107       110       112
       109       107       110       113       110       113       116       117
       110       113       116       118       110       113       116       119
       111       110       113       114       111       110       113       115
       111       110       113       116       112       110       113       114
       112       110       113       115       112       110       113       116
       113       116       119       120       113       116       119       121
       113       116       119       122       114       113       116       117
       114       113       116       118       114       113       116       119
       115       113       116       117       115       113       116       118
       115       113       116       119       117       116       119       120
       117       116       119       121       117       116       119       122
       118       116       119       120       118       116       119       121
       118       116       119       122       123       127       130       131
       123       127       130       132       123       127       130       137
       124       123       127       128       124       123       127       129
       124       123       127       130       125       123       127       128
       125       123       127       129       125       123       127       130
       126       123       127       128       126       123       127       129
       126       123       127       130       127       130       137       133
       128       127       130       131       128       127       130       132
       128       127       130       137       129       127       130       131
       129       127       130       132       129       127       130       137
       130       137       133       134       130       137       133       135
       130       137       133       136       131       130       137       133
       132       130       137       133       133       136       138       139
       133       136       138       140       133       136       138       141
       134       133       136       138       135       133       136       138
       136       138       141       142       136       138       141       143
       136       138       141       149       137       133       136       138
       138       141       143       144       138       141       149       150
       138       141       149       151       138       141       149       152
       139       138       141       142       139       138       141       143
       139       138       141       149       140       138       141       142
       140       138       141       143       140       138       141       149
       141       143       144       145       141       143       144       146
       141       149       152       153       142       141       143       144
       142       141       149       150       142       141       149       151
       142       141       149       152       143       141       149       150
       143       141       149       151       143       141       149       152
       143       144       146       147       143       144       146       148
       143       144       146       158       144       143       141       149
       144       146       158       159       144       146       158       160
       144       146       158       161       145       144       146       147
       145       144       146       148       145       144       146       158
       146       158       161       162       146       158       161       163
       146       158       161       164       147       146       158       159
       147       146       158       160       147       146       158       161
       148       146       158       159       148       146       158       160
       148       146       158       161       149       152       153       154
       149       152       153       155       150       149       152       153
       151       149       152       153       152       153       155       156
       152       153       155       157       152       153       155       202
       153       155       202       203       153       155       202       204
       153       155       202       205       154       153       155       156
       154       153       155       157       154       153       155       202
       155       202       205       206       155       202       205       207
       155       202       205       208       156       155       202       203
       156       155       202       204       156       155       202       205
       157       155       202       203       157       155       202       204
       157       155       202       205       158       161       164       165
       158       161       164       166       158       161       164       167
       159       158       161       162       159       158       161       163
       159       158       161       164       160       158       161       162
       160       158       161       163       160       158       161       164
       161       164       167       168       161       164       167       169
       161       164       167       170       162       161       164       165
       162       161       164       166       162       161       164       167
       163       161       164       165       163       161       164       166
       163       161       164       167       164       167       170       171
       164       167       170       172       164       167       170       173
       165       164       167       168       165       164       167       169
       165       164       167       170       166       164       167       168
       166       164       167       169       166       164       167       170
       167       170       173       174       167       170       173       175
       167       170       173       176       168       167       170       171
       168       167       170       172       168       167       170       173
       169       167       170       171       169       167       170       172
       169       167       170       173       170       173       176       177
       170       173       176       178       170       173       176       181
       171       170       173       174       171       170       173       175
       171       170       173       176       172       170       173       174
       172       170       173       175       172       170       173       176
       173       176       178       179       173       176       178       180
       173       176       178       181       173       176       181       178
       173       176       181       182       173       176       181       183
       174       173       176       177       174       173       176       178
       174       173       176       181       175       173       176       177
       175       173       176       178       175       173       176       181
       176       178       181       182       176       178       181       183
       176       181       178       179       176       181       178       180
       176       181       183       184       176       181       183       185
       176       181       183       186       177       176       178       179
       177       176       178       180       177       176       178       181
       177       176       181       178       177       176       181       182
       177       176       181       183       178       176       181       182
       178       176       181       183       178       181       183       184
       178       181       183       185       178       181       183       186
       179       178       176       181       179       178       181       182
       179       178       181       183       180       178       176       181
       180       178       181       182       180       178       181       183
       181       183       186       187       181       183       186       188
       181       183       186       189       182       181       183       184
       182       181       183       185       182       181       183       186
       183       186       189       190       183       186       189       191
       183       186       189       192       184       183       186       187
       184       183       186       188       184       183       186       189
       185       183       186       187       185       183       186       188
       185       183       186       189       186       189       192       193
       186       189       192       194       186       189       192       195
       187       186       189       190       187       186       189       191
       187       186       189       192       188       186       189       190
       188       186       189       191       188       186       189       192
       189       192       195       196       189       192       195       197
       189       192       195       198       190       189       192       193
       190       189       192       194       190       189       192       195
       191       189       192       193       191       189       192       194
       191       189       192       195       192       195       198       199
       192       195       198       200       192       195       198       201
       193       192       195       196       193       192       195       197
       193       192       195       198       194       192       195       196
       194       192       195       197       194       192       195       198
       196       195       198       199       196       195       198       200
       196       195       198       201       197       195       198       199
       197       195       198       200       197       195       198       201
       202       205       208       209       202       205       208       210
       202       205       208       211       203       202       205       206
       203       202       205       207       203       202       205       208
       204       202       205       206       204       202       205       207
       204       202       205       208       205       208       211       212
       205       208       211       213       205       208       211       214
       206       205       208       209       206       205       208       210
       206       205       208       211       207       205       208       209
       207       205       208       210       207       205       208       211
       208       211       214       215       208       211       214       216
       208       211       214       217       209       208       211       212
       209       208       211       213       209       208       211       214
       210       208       211       212       210       208       211       213
       210       208       211       214       211       214       217       218
       211       214       217       219       211       214       217       220
       212       211       214       215       212       211       214       216
       212       211       214       217       213       211       214       215
       213       211       214       216       213       211       214       217
       214       217       220       221       214       217       220       222
       214       217       220       223       215       214       217       218
       215       214       217       219       215       214       217       220
       216       214       217       218       216       214       217       219
       216       214       217       220       217       220       223       224
       217       220       223       225       217       220       223       226
       218       217       220       221       218       217       220       222
       218       217       220       223       219       217       220       221
       219       217       220       222       219       217       220       223
       220       223       226       227       220       223       226       228
       220       223       226       229       221       220       223       224
       221       220       223       225       221       220       223       226
       222       220       223       224       222       220       223       225
       222       220       223       226       223       226       229       230
       223       226       229       231       223       226       229       232
       224       223       226       227       224       223       226       228
       224       223       226       229       225       223       226       227
       225       223       226       228       225       223       226       229
       226       229       232       233       226       229       232       234
       226       229       232       235       227       226       229       230
       227       226       229       231       227       226       229       232
       228       226       229       230       228       226       229       231
       228       226       229       232       229       232       235       236
       229       232       235       237       229       232       235       238
       230       229       232       233       230       229       232       234
       230       229       232       235       231       229       232       233
       231       229       232       234       231       229       232       235
       232       235       238       239       232       235       238       240
       232       235       238       241       233       232       235       236
       233       232       235       237       233       232       235       238
       234       232       235       236       234       232       235       237
       234       232       235       238       235       238       241       242
       235       238       241       243       235       238       241       244
       236       235       238       239       236       235       238       240
       236       235       238       241       237       235       238       239
       237       235       238       240       237       235       238       241
       239       238       241       242       239       238       241       243
       239       238       241       244       240       238       241       242
       240       238       241       243       240       238       241       244
       245       249       252       253       245       249       252       254
       245       249       252       259       246       245       249       250
       246       245       249       251       246       245       249       252
       247       245       249       250       247       245       249       251
       247       245       249       252       248       245       249       250
       248       245       249       251       248       245       249       252
       249       252       259       255       250       249       252       253
       250       249       252       254       250       249       252       259
       251       249       252       253       251       249       252       254
       251       249       252       259       252       259       255       256
       252       259       255       257       252       259       255       258
       253       252       259       255       254       252       259       255
       255       258       260       261       255       258       260       262
       255       258       260       263       256       255       258       260
       257       255       258       260       258       260       263       264
       258       260       263       265       258       260       263       271
       259       255       258       260       260       263       265       266
       260       263       271       272       260       263       271       273
       260       263       271       274       261       260       263       264
       261       260       263       265       261       260       263       271
       262       260       263       264       262       260       263       265
       262       260       263       271       263       265       266       267
       263       265       266       268       263       271       274       275
       264       263       265       266       264       263       271       272
       264       263       271       273       264       263       271       274
       265       263       271       272       265       263       271       273
       265       263       271       274       265       266       268       269
       265       266       268       270       265       266       268       280
       266       265       263       271       266       268       280       281
       266       268       280       282       266       268       280       283
       267       266       268       269       267       266       268       270
       267       266       268       280       268       280       283       284
       268       280       283       285       268       280       283       286
       269       268       280       281       269       268       280       282
       269       268       280       283       270       268       280       281
       270       268       280       282       270       268       280       283
       271       274       275       276       271       274       275       277
       272       271       274       275       273       271       274       275
       274       275       277       278       274       275       277       279
       274       275       277       321       275       277       321       322
       275       277       321       323       275       277       321       324
       276       275       277       278       276       275       277       279
       276       275       277       321       277       321       324       325
       277       321       324       326       277       321       324       327
       278       277       321       322       278       277       321       323
       278       277       321       324       279       277       321       322
       279       277       321       323       279       277       321       324
       280       283       286       287       280       283       286       288
       280       283       286       289       281       280       283       284
       281       280       283       285       281       280       283       286
       282       280       283       284       282       280       283       285
       282       280       283       286       283       286       289       290
       283       286       289       291       283       286       289       292
       284       283       286       287       284       283       286       288
       284       283       286       289       285       283       286       287
       285       283       286       288       285       283       286       289
       286       289       292       293       286       289       292       294
       286       289       292       295       287       286       289       290
       287       286       289       291       287       286       289       292
       288       286       289       290       288       286       289       291
       288       286       289       292       289       292       295       296
       289       292       295       297       289       292       295       298
       290       289       292       293       290       289       292       294
       290       289       292       295       291       289       292       293
       291       289       292       294       291       289       292       295
       292       295       298       299       292       295       298       300
       293       292       295       296       293       292       295       297
       293       292       295       298       294       292       295       296
       294       292       295       297       294       292       295       298
       295       298       300       301       295       298       300       302
       296       295       298       299       296       295       298       300
       297       295       298       299       297       295       298       300
       298       300       302       303       298       300       302       304
       298       300       302       305       299       298       300       301
       299       298       300       302       300       302       305       306
       300       302       305       307       300       302       305       308
       301       300       302       303       301       300       302       304
       301       300       302       305       302       305       308       309
       302       305       308       310       302       305       308       311
       303       302       305       306       303       302       305       307
       303       302       305       308       304       302       305       306
       304       302       305       307       304       302       305       308
       305       308       311       312       305       308       311       313
       305       308       311       314       306       305       308       309
       306       305       308       310       306       305       308       311
       307       305       308       309       307       305       308       310
       307       305       308       311       308       311       314       315
       308       311       314       316       308       311       314       317
       309       308       311       312       309       308       311       313
       309       308       311       314       310       308       311       312
       310       308       311       313       310       308       311       314
       311       314       317       318       311       314       317       319
       311       314       317       320       312       311       314       315
       312       311       314       316       312       311       314       317
       313       311       314       315       313       311       314       316
       313       311       314       317       315       314       317       318
       315       314       317       319       315       314       317       320
       316       314       317       318       316       314       317       319
       316       314       317       320       321       324       327       328
       321       324       327       329       321       324       327       330
       322       321       324       325       322       321       324       326
       322       321       324       327       323       321       324       325
       323       321       324       326       323       321       324       327
       324       327       330       331       324       327       330       332
       324       327       330       333       325       324       327       328
       325       324       327       329       325       324       327       330
       326       324       327       328       326       324       327       329
       326       324       327       330       327       330       333       334
       327       330       333       335       327       330       333       336
       328       327       330       331       328       327       330       332
       328       327       330       333       329       327       330       331
       329       327       330       332       329       327       330       333
       330       333       336       337       330       333       336       338
       330       333       336       339       331       330       333       334
       331       330       333       335       331       330       333       336
       332       330       333       334       332       330       333       335
       332       330       333       336       333       336       339       340
       333       336       339       341       334       333       336       337
       334       333       336       338       334       333       336       339
       335       333       336       337       335       333       336       338
       335       333       336       339       336       339       341       342
       336       339       341       343       337       336       339       340
       337       336       339       341       338       336       339       340
       338       336       339       341       339       341       343       344
       339       341       343       345       339       341       343       346
       340       339       341       342       340       339       341       343
       341       343       346       347       341       343       346       348
       341       343       346       349       342       341       343       344
       342       341       343       345       342       341       343       346
       343       346       349       350       343       346       349       351
       343       346       349       352       344       343       346       347
       344       343       346       348       344       343       346       349
       345       343       346       347       345       343       346       348
       345       343       346       349       346       349       352       353
       346       349       352       354       346       349       352       355
       347       346       349       350       347       346       349       351
       347       346       349       352       348       346       349       350
       348       346       349       351       348       346       349       352
       349       352       355       356       349       352       355       357
       349       352       355       358       350       349       352       353
       350       349       352       354       350       349       352       355
       351       349       352       353       351       349       352       354
       351       349       352       355       352       355       358       359
       352       355       358       360       352       355       358       361
       353       352       355       356       353       352       355       357
       353       352       355       358       354       352       355       356
       354       352       355       357       354       352       355       358
       355       358       361       362       355       358       361       363
       355       358       361       364       356       355       358       359
       356       355       358       360       356       355       358       361
       357       355       358       359       357       355       358       360
       357       355       358       361       358       361       364       365
       358       361       364       366       358       361       364       367
       359       358       361       362       359       358       361       363
       359       358       361       364       360       358       361       362
       360       358       361       363       360       358       361       364
       362       361       364       365       362       361       364       366
       362       361       364       367       363       361       364       365
       363       361       364       366       363       361       364       367
       368       372       375       376       368       372       375       377
       368       372       375       382       369       368       372       373
       369       368       372       374       369       368       372       375
       370       368       372       373       370       368       372       374
       370       368       372       375       371       368       372       373
       371       368       372       374       371       368       372       375
       372       375       382       378       373       372       375       376
       373       372       375       377       373       372       375       382
       374       372       375       376       374       372       375       377
       374       372       375       382       375       382       378       379
       375       382       378       380       375       382       378       381
       376       375       382       378       377       375       382       378
       378       381       383       384       378       381       383       385
       378       381       383       386       379       378       381       383
       380       378       381       383       381       383       386       387
       381       383       386       388       381       383       386       394
       382       378       381       383       383       386       388       389
       383       386       394       395       383       386       394       396
       383       386       394       397       384       383       386       387
       384       383       386       388       384       383       386       394
       385       383       386       387       385       383       386       388
       385       383       386       394       386       388       389       390
       386       388       389       391       386       394       397       398
       387       386       388       389       387       386       394       395
       387       386       394       396       387       386       394       397
       388       386       394       395       388       386       394       396
       388       386       394       397       388       389       391       392
       388       389       391       393       388       389       391       403
       389       388       386       394       389       391       403       404
       389       391       403       405       389       391       403       406
       390       389       391       392       390       389       391       393
       390       389       391       403       391       403       406       407
       391       403       406       408       391       403       406       409
       392       391       403       404       392       391       403       405
       392       391       403       406       393       391       403       404
       393       391       403       405       393       391       403       406
       394       397       398       399       394       397       398       400
       395       394       397       398       396       394       397       398
       397       398       400       401       397       398       400       402
       397       398       400       447       398       400       447       448
       398       400       447       449       398       400       447       450
       399       398       400       401       399       398       400       402
       399       398       400       447       400       447       450       451
       400       447       450       452       400       447       450       453
       401       400       447       448       401       400       447       449
       401       400       447       450       402       400       447       448
       402       400       447       449       402       400       447       450
       403       406       409       410       403       406       409       411
       403       406       409       412       404       403       406       407
       404       403       406       408       404       403       406       409
       405       403       406       407       405       403       406       408
       405       403       406       409       406       409       412       413
       406       409       412       414       406       409       412       415
       407       406       409       410       407       406       409       411
       407       406       409       412       408       406       409       410
       408       406       409       411       408       406       409       412
       409       412       415       416       409       412       415       417
       409       412       415       418       410       409       412       413
       410       409       412       414       410       409       412       415
       411       409       412       413       411       409       412       414
       411       409       412       415       412       415       418       419
       412       415       418       420       412       415       418       421
       413       412       415       416       413       412       415       417
       413       412       415       418       414       412       415       416
       414       412       415       417       414       412       415       418
       415       418       421       422       415       418       421       423
       415       418       421       426       416       415       418       419
       416       415       418       420       416       415       418       421
       417       415       418       419       417       415       418       420
       417       415       418       421       418       421       423       424
       418       421       423       425       418       421       423       426
       418       421       426       423       418       421       426       427
       418       421       426       428       419       418       421       422
       419       418       421       423       419       418       421       426
       420       418       421       422       420       418       421       423
       420       418       421       426       421       423       426       427
       421       423       426       428       421       426       423       424
       421       426       423       425       421       426       428       429
       421       426       428       430       421       426       428       431
       422       421       423       424       422       421       423       425
       422       421       423       426       422       421       426       423
       422       421       426       427       422       421       426       428
       423       421       426       427       423       421       426       428
       423       426       428       429       423       426       428       430
       423       426       428       431       424       423       421       426
       424       423       426       427       424       423       426       428
       425       423       421       426       425       423       426       427
       425       423       426       428       426       428       431       432
       426       428       431       433       426       428       431       434
       427       426       428       429       427       426       428       430
       427       426       428       431       428       431       434       435
       428       431       434       436       428       431       434       437
       429       428       431       432       429       428       431       433
       429       428       431       434       430       428       431       432
       430       428       431       433       430       428       431       434
       431       434       437       438       431       434       437       439
       431       434       437       440       432       431       434       435
       432       431       434       436       432       431       434       437
       433       431       434       435       433       431       434       436
       433       431       434       437       434       437       440       441
       434       437       440       442       434       437       440       443
       435       434       437       438       435       434       437       439
       435       434       437       440       436       434       437       438
       436       434       437       439       436       434       437       440
       437       440       443       444       437       440       443       445
       437       440       443       446       438       437       440       441
       438       437       440       442       438       437       440       443
       439       437       440       441       439       437       440       442
       439       437       440       443       441       440       443       444
       441       440       443       445       441       440       443       446
       442       440       443       444       442       440       443       445
       442       440       443       446       447       450       453       454
       447       450       453       455       447       450       453       456
       448       447       450       451       448       447       450       452
       448       447       450       453       449       447       450       451
       449       447       450       452       449       447       450       453
       450       453       456       457       450       453       456       458
       450       453       456       459       451       450       453       454
       451       450       453       455       451       450       453       456
       452       450       453       454       452       450       453       455
       452       450       453       456       453       456       459       460
       453       456       459       461       453       456       459       462
       454       453       456       457       454       453       456       458
       454       453       456       459       455       453       456       457
       455       453       456       458       455       453       456       459
       456       459       462       463       456       459       462       464
       456       459       462       465       457       456       459       460
       457       456       459       461       457       456       459       462
       458       456       459       460       458       456       459       461
       458       456       459       462       459       462       465       466
       459       462       465       467       459       462       465       468
       460       459       462       463       460       459       462       464
       460       459       462       465       461       459       462       463
       461       459       462       464       461       459       462       465
       462       465       468       469       462       465       468       470
       462       465       468       471       463       462       465       466
       463       462       465       467       463       462       465       468
       464       462       465       466       464       462       465       467
       464       462       465       468       465       468       471       472
       465       468       471       473       465       468       471       474
       466       465       468       469       466       465       468       470
       466       465       468       471       467       465       468       469
       467       465       468       470       467       465       468       471
       468       471       474       475       468       471       474       476
       468       471       474       477       469       468       471       472
       469       468       471       473       469       468       471       474
       470       468       471       472       470       468       471       473
       470       468       471       474       471       474       477       478
       471       474       477       479       471       474       477       480
       472       471       474       475       472       471       474       476
       472       471       474       477       473       471       474       475
       473       471       474       476       473       471       474       477
       474       477       480       481       474       477       480       482
       474       477       480       483       475       474       477       478
       475       474       477       479       475       474       477       480
       476       474       477       478       476       474       477       479
       476       474       477       480       477       480       483       484
       477       480       483       485       477       480       483       486
       478       477       480       481       478       477       480       482
       478       477       480       483       479       477       480       481
       479       477       480       482       479       477       480       483
       480       483       486       487       480       483       486       488
       480       483       486       489       481       480       483       484
       481       480       483       485       481       480       483       486
       482       480       483       484       482       480       483       485
       482       480       483       486       484       483       486       487
       484       483       486       488       484       483       486       489
       485       483       486       487       485       483       486       488
       485       483       486       489       490       495       497       498
       490       495       499       500       490       495       499       501
       490       495       499       506       491       490       493       494
       491       490       495       496       491       490       495       497
       491       490       495       499       492       490       493       494
       492       490       495       496       492       490       495       497
       492       490       495       499       493       490       495       496
       493       490       495       497       493       490       495       499
       494       493       490       495       495       499       506       502
       496       495       497       498       496       495       499       500
       496       495       499       501       496       495       499       506
       497       495       499       500       497       495       499       501
       497       495       499       506       498       497       495       499
       499       506       502       503       499       506       502       504
       499       506       502       505       500       499       506       502
       501       499       506       502       502       505       507       508
       502       505       507       509       502       505       507       510
       503       502       505       507       504       502       505       507
       505       507       510       511       505       507       510       512
       505       507       510       518       506       502       505       507
       507       510       512       513       507       510       518       519
       507       510       518       520       507       510       518       521
       508       507       510       511       508       507       510       512
       508       507       510       518       509       507       510       511
       509       507       510       512       509       507       510       518
       510       512       513       514       510       512       513       515
       510       518       521       522       511       510       512       513
       511       510       518       519       511       510       518       520
       511       510       518       521       512       510       518       519
       512       510       518       520       512       510       518       521
       512       513       515       516       512       513       515       517
       512       513       515       527       513       512       510       518
       513       515       527       528       513       515       527       529
       513       515       527       530       514       513       515       516
       514       513       515       517       514       513       515       527
       515       527       530       531       515       527       530       532
       515       527       530       533       516       515       527       528
       516       515       527       529       516       515       527       530
       517       515       527       528       517       515       527       529
       517       515       527       530       518       521       522       523
       518       521       522       524       519       518       521       522
       520       518       521       522       521       522       524       525
       521       522       524       526       521       522       524       568
       522       524       568       569       522       524       568       570
       522       524       568       571       523       522       524       525
       523       522       524       526       523       522       524       568
       524       568       571       572       524       568       571       573
       524       568       571       574       525       524       568       569
       525       524       568       570       525       524       568       571
       526       524       568       569       526       524       568       570
       526       524       568       571       527       530       533       534
       527       530       533       535       527       530       533       536
       528       527       530       531       528       527       530       532
       528       527       530       533       529       527       530       531
       529       527       530       532       529       527       530       533
       530       533       536       537       530       533       536       538
       530       533       536       539       531       530       533       534
       531       530       533       535       531       530       533       536
       532       530       533       534       532       530       533       535
       532       530       533       536       533       536       539       540
       533       536       539       541       533       536       539       542
       534       533       536       537       534       533       536       538
       534       533       536       539       535       533       536       537
       535       533       536       538       535       533       536       539
       536       539       542       543       536       539       542       544
       536       539       542       545       537       536       539       540
       537       536       539       541       537       536       539       542
       538       536       539       540       538       536       539       541
       538       536       539       542       539       542       545       546
       539       542       545       547       540       539       542       543
       540       539       542       544       540       539       542       545
       541       539       542       543       541       539       542       544
       541       539       542       545       542       545       547       548
       542       545       547       549       543       542       545       546
       543       542       545       547       544       542       545       546
       544       542       545       547       545       547       549       550
       545       547       549       551       545       547       549       552
       546       545       547       548       546       545       547       549
       547       549       552       553       547       549       552       554
       547       549       552       555       548       547       549       550
       548       547       549       551       548       547       549       552
       549       552       555       556       549       552       555       557
       549       552       555       558       550       549       552       553
       550       549       552       554       550       549       552       555
       551       549       552       553       551       549       552       554
       551       549       552       555       552       555       558       559
       552       555       558       560       552       555       558       561
       553       552       555       556       553       552       555       557
       553       552       555       558       554       552       555       556
       554       552       555       557       554       552       555       558
       555       558       561       562       555       558       561       563
       555       558       561       564       556       555       558       559
       556       555       558       560       556       555       558       561
       557       555       558       559       557       555       558       560
       557       555       558       561       558       561       564       565
       558       561       564       566       558       561       564       567
       559       558       561       562       559       558       561       563
       559       558       561       564       560       558       561       562
       560       558       561       563       560       558       561       564
       562       561       564       565       562       561       564       566
       562       561       564       567       563       561       564       565
       563       561       564       566       563       561       564       567
       568       571       574       575       568       571       574       576
       568       571       574       577       569       568       571       572
       569       568       571       573       569       568       571       574
       570       568       571       572       570       568       571       573
       570       568       571       574       571       574       577       578
       571       574       577       579       571       574       577       580
       572       571       574       575       572       571       574       576
       572       571       574       577       573       571       574       575
       573       571       574       576       573       571       574       577
       574       577       580       581       574       577       580       582
       574       577       580       583       575       574       577       578
       575       574       577       579       575       574       577       580
       576       574       577       578       576       574       577       579
       576       574       577       580       577       580       583       584
       577       580       583       585       577       580       583       586
       578       577       580       581       578       577       580       582
       578       577       580       583       579       577       580       581
       579       577       580       582       579       577       580       583
       580       583       586       587       580       583       586       588
       580       583       586       589       581       580       583       584
       581       580       583       585       581       580       583       586
       582       580       583       584       582       580       583       585
       582       580       583       586       583       586       589       590
       583       586       589       591       583       586       589       592
       584       583       586       587       584       583       586       588
       584       583       586       589       585       583       586       587
       585       583       586       588       585       583       586       589
       586       589       592       593       586       589       592       594
       586       589       592       595       587       586       589       590
       587       586       589       591       587       586       589       592
       588       586       589       590       588       586       589       591
       588       586       589       592       589       592       595       596
       589       592       595       597       589       592       595       598
       590       589       592       593       590       589       592       594
       590       589       592       595       591       589       592       593
       591       589       592       594       591       589       592       595
       592       595       598       599       592       595       598       600
       592       595       598       601       593       592       595       596
       593       592       595       597       593       592       595       598
       594       592       595       596       594       592       595       597
       594       592       595       598       595       598       601       602
       595       598       601       603       595       598       601       604
       596       595       598       599       596       595       598       600
       596       595       598       601       597       595       598       599
       597       595       598       600       597       595       598       601
       598       601       604       605       598       601       604       606
       598       601       604       607       599       598       601       602
       599       598       601       603       599       598       601       604
       600       598       601       602       600       598       601       603
       600       598       601       604       601       604       607       608
       601       604       607       609       601       604       607       610
       602       601       604       605       602       601       604       606
       602       601       604       607       603       601       604       605
       603       601       604       606       603       601       604       607
       605       604       607       608       605       604       607       609
       605       604       607       610       606       604       607       608
       606       604       607       609       606       604       607       610
       611       615       618       619       611       615       618       620
       611       615       618       625       612       611       615       616
       612       611       615       617       612       611       615       618
       613       611       615       616       613       611       615       617
       613       611       615       618       614       611       615       616
       614       611       615       617       614       611       615       618
       615       618       625       621       616       615       618       619
       616       615       618       620       616       615       618       625
       617       615       618       619       617       615       618       620
       617       615       618       625       618       625       621       622
       618       625       621       623       618       625       621       624
       619       618       625       621       620       618       625       621
       621       624       626       627       621       624       626       628
       621       624       626       629       622       621       624       626
       623       621       624       626       624       626       629       630
       624       626       629       631       624       626       629       637
       625       621       624       626       626       629       631       632
       626       629       637       638       626       629       637       639
       626       629       637       640       627       626       629       630
       627       626       629       631       627       626       629       637
       628       626       629       630       628       626       629       631
       628       626       629       637       629       631       632       633
       629       631       632       634       629       637       640       641
       630       629       631       632       630       629       637       638
       630       629       637       639       630       629       637       640
       631       629       637       638       631       629       637       639
       631       629       637       640       631       632       634       635
       631       632       634       636       631       632       634       646
       632       631       629       637       632       634       646       647
       632       634       646       648       632       634       646       649
       633       632       634       635       633       632       634       636
       633       632       634       646       634       646       649       650
       634       646       649       651       634       646       649       652
       635       634       646       647       635       634       646       648
       635       634       646       649       636       634       646       647
       636       634       646       648       636       634       646       649
       637       640       641       642       637       640       641       643
       638       637       640       641       639       637       640       641
       640       641       643       644       640       641       643       645
       640       641       643       690       641       643       690       691
       641       643       690       692       641       643       690       693
       642       641       643       644       642       641       643       645
       642       641       643       690       643       690       693       694
       643       690       693       695       643       690       693       696
       644       643       690       691       644       643       690       692
       644       643       690       693       645       643       690       691
       645       643       690       692       645       643       690       693
       646       649       652       653       646       649       652       654
       646       649       652       655       647       646       649       650
       647       646       649       651       647       646       649       652
       648       646       649       650       648       646       649       651
       648       646       649       652       649       652       655       656
       649       652       655       657       649       652       655       658
       650       649       652       653       650       649       652       654
       650       649       652       655       651       649       652       653
       651       649       652       654       651       649       652       655
       652       655       658       659       652       655       658       660
       652       655       658       661       653       652       655       656
       653       652       655       657       653       652       655       658
       654       652       655       656       654       652       655       657
       654       652       655       658       655       658       661       662
       655       658       661       663       655       658       661       664
       656       655       658       659       656       655       658       660
       656       655       658       661       657       655       658       659
       657       655       658       660       657       655       658       661
       658       661       664       665       658       661       664       666
       658       661       664       669       659       658       661       662
       659       658       661       663       659       658       661       664
       660       658       661       662       660       658       661       663
       660       658       661       664       661       664       666       667
       661       664       666       668       661       664       666       669
       661       664       669       666       661       664       669       670
       661       664       669       671       662       661       664       665
       662       661       664       666       662       661       664       669
       663       661       664       665       663       661       664       666
       663       661       664       669       664       666       669       670
       664       666       669       671       664       669       666       667
       664       669       666       668       664       669       671       672
       664       669       671       673       664       669       671       674
       665       664       666       667       665       664       666       668
       665       664       666       669       665       664       669       666
       665       664       669       670       665       664       669       671
       666       664       669       670       666       664       669       671
       666       669       671       672       666       669       671       673
       666       669       671       674       667       666       664       669
       667       666       669       670       667       666       669       671
       668       666       664       669       668       666       669       670
       668       666       669       671       669       671       674       675
       669       671       674       676       669       671       674       677
       670       669       671       672       670       669       671       673
       670       669       671       674       671       674       677       678
       671       674       677       679       671       674       677       680
       672       671       674       675       672       671       674       676
       672       671       674       677       673       671       674       675
       673       671       674       676       673       671       674       677
       674       677       680       681       674       677       680       682
       674       677       680       683       675       674       677       678
       675       674       677       679       675       674       677       680
       676       674       677       678       676       674       677       679
       676       674       677       680       677       680       683       684
       677       680       683       685       677       680       683       686
       678       677       680       681       678       677       680       682
       678       677       680       683       679       677       680       681
       679       677       680       682       679       677       680       683
       680       683       686       687       680       683       686       688
       680       683       686       689       681       680       683       684
       681       680       683       685       681       680       683       686
       682       680       683       684       682       680       683       685
       682       680       683       686       684       683       686       687
       684       683       686       688       684       683       686       689
       685       683       686       687       685       683       686       688
       685       683       686       689       690       693       696       697
       690       693       696       698       690       693       696       699
       691       690       693       694       691       690       693       695
       691       690       693       696       692       690       693       694
       692       690       693       695       692       690       693       696
       693       696       699       700       693       696       699       701
       693       696       699       702       694       693       696       697
       694       693       696       698       694       693       696       699
       695       693       696       697       695       693       696       698
       695       693       696       699       696       699       702       703
       696       699       702       704       696       699       702       705
       697       696       699       700       697       696       699       701
       697       696       699       702       698       696       699       700
       698       696       699       701       698       696       699       702
       699       702       705       706       699       702       705       707
       699       702       705       708       700       699       702       703
       700       699       702       704       700       699       702       705
       701       699       702       703       701       699       702       704
       701       699       702       705       702       705       708       709
       702       705       708       710       702       705       708       711
       703       702       705       706       703       702       705       707
       703       702       705       708       704       702       705       706
       704       702       705       707       704       702       705       708
       705       708       711       712       705       708       711       713
       705       708       711       714       706       705       708       709
       706       705       708       710       706       705       708       711
       707       705       708       709       707       705       708       710
       707       705       708       711       708       711       714       715
       708       711       714       716       708       711       714       717
       709       708       711       712       709       708       711       713
       709       708       711       714       710       708       711       712
       710       708       711       713       710       708       711       714
       711       714       717       718       711       714       717       719
       711       714       717       720       712       711       714       715
       712       711       714       716       712       711       714       717
       713       711       714       715       713       711       714       716
       713       711       714       717       714       717       720       721
       714       717       720       722       714       717       720       723
       715       714       717       718       715       714       717       719
       715       714       717       720       716       714       717       718
       716       714       717       719       716       714       717       720
       717       720       723       724       717       720       723       725
       717       720       723       726       718       717       720       721
       718       717       720       722       718       717       720       723
       719       717       720       721       719       717       720       722
       719       717       720       723       720       723       726       727
       720       723       726       728       720       723       726       729
       721       720       723       724       721       720       723       725
       721       720       723       726       722       720       723       724
       722       720       723       725       722       720       723       726
       723       726       729       730       723       726       729       731
       723       726       729       732       724       723       726       727
       724       723       726       728       724       723       726       729
       725       723       726       727       725       723       726       728
       725       723       726       729       727       726       729       730
       727       726       729       731       727       726       729       732
       728       726       729       730       728       726       729       731
       728       726       729       732       733       737       740       741
       733       737       740       742       733       737       740       747
       734       733       737       738       734       733       737       739
       734       733       737       740       735       733       737       738
       735       733       737       739       735       733       737       740
       736       733       737       738       736       733       737       739
       736       733       737       740       737       740       747       743
       738       737       740       741       738       737       740       742
       738       737       740       747       739       737       740       741
       739       737       740       742       739       737       740       747
       740       747       743       744       740       747       743       745
       740       747       743       746       741       740       747       743
       742       740       747       743       743       746       748       749
       743       746       748       750       743       746       748       751
       744       743       746       748       745       743       746       748
       746       748       751       752       746       748       751       753
       746       748       751       759       747       743       746       748
       748       751       753       754       748       751       759       760
       748       751       759       761       748       751       759       762
       749       748       751       752       749       748       751       753
       749       748       751       759       750       748       751       752
       750       748       751       753       750       748       751       759
       751       753       754       755       751       753       754       756
       751       759       762       763       752       751       753       754
       752       751       759       760       752       751       759       761
       752       751       759       762       753       751       759       760
       753       751       759       761       753       751       759       762
       753       754       756       757       753       754       756       758
       753       754       756       768       754       753       751       759
       754       756       768       769       754       756       768       770
       754       756       768       771       755       754       756       757
       755       754       756       758       755       754       756       768
       756       768       771       772       756       768       771       773
       756       768       771       774       757       756       768       769
       757       756       768       770       757       756       768       771
       758       756       768       769       758       756       768       770
       758       756       768       771       759       762       763       764
       759       762       763       765       760       759       762       763
       761       759       762       763       762       763       765       766
       762       763       765       767       762       763       765       812
       763       765       812       813       763       765       812       814
       763       765       812       815       764       763       765       766
       764       763       765       767       764       763       765       812
       765       812       815       816       765       812       815       817
       765       812       815       818       766       765       812       813
       766       765       812       814       766       765       812       815
       767       765       812       813       767       765       812       814
       767       765       812       815       768       771       774       775
       768       771       774       776       768       771       774       777
       769       768       771       772       769       768       771       773
       769       768       771       774       770       768       771       772
       770       768       771       773       770       768       771       774
       771       774       777       778       771       774       777       779
       771       774       777       780       772       771       774       775
       772       771       774       776       772       771       774       777
       773       771       774       775       773       771       774       776
       773       771       774       777       774       777       780       781
       774       777       780       782       774       777       780       783
       775       774       777       778       775       774       777       779
       775       774       777       780       776       774       777       778
       776       774       777       779       776       774       777       780
       777       780       783       784       777       780       783       785
       777       780       783       786       778       777       780       781
       778       777       780       782       778       777       780       783
       779       777       780       781       779       777       780       782
       779       777       780       783       780       783       786       787
       780       783       786       788       780       783       786       791
       781       780       783       784       781       780       783       785
       781       780       783       786       782       780       783       784
       782       780       783       785       782       780       783       786
       783       786       788       789       783       786       788       790
       783       786       788       791       783       786       791       788
       783       786       791       792       783       786       791       793
       784       783       786       787       784       783       786       788
       784       783       786       791       785       783       786       787
       785       783       786       788       785       783       786       791
       786       788       791       792       786       788       791       793
       786       791       788       789       786       791       788       790
       786       791       793       794       786       791       793       795
       786       791       793       796       787       786       788       789
       787       786       788       790       787       786       788       791
       787       786       791       788       787       786       791       792
       787       786       791       793       788       786       791       792
       788       786       791       793       788       791       793       794
       788       791       793       795       788       791       793       796
       789       788       786       791       789       788       791       792
       789       788       791       793       790       788       786       791
       790       788       791       792       790       788       791       793
       791       793       796       797       791       793       796       798
       791       793       796       799       792       791       793       794
       792       791       793       795       792       791       793       796
       793       796       799       800       793       796       799       801
       793       796       799       802       794       793       796       797
       794       793       796       798       794       793       796       799
       795       793       796       797       795       793       796       798
       795       793       796       799       796       799       802       803
       796       799       802       804       796       799       802       805
       797       796       799       800       797       796       799       801
       797       796       799       802       798       796       799       800
       798       796       799       801       798       796       799       802
       799       802       805       806       799       802       805       807
       799       802       805       808       800       799       802       803
       800       799       802       804       800       799       802       805
       801       799       802       803       801       799       802       804
       801       799       802       805       802       805       808       809
       802       805       808       810       802       805       808       811
       803       802       805       806       803       802       805       807
       803       802       805       808       804       802       805       806
       804       802       805       807       804       802       805       808
       806       805       808       809       806       805       808       810
       806       805       808       811       807       805       808       809
       807       805       808       810       807       805       808       811
       812       815       818       819       812       815       818       820
       812       815       818       821       813       812       815       816
       813       812       815       817       813       812       815       818
       814       812       815       816       814       812       815       817
       814       812       815       818       815       818       821       822
       815       818       821       823       815       818       821       824
       816       815       818       819       816       815       818       820
       816       815       818       821       817       815       818       819
       817       815       818       820       817       815       818       821
       818       821       824       825       818       821       824       826
       818       821       824       827       819       818       821       822
       819       818       821       823       819       818       821       824
       820       818       821       822       820       818       821       823
       820       818       821       824       821       824       827       828
       821       824       827       829       821       824       827       830
       822       821       824       825       822       821       824       826
       822       821       824       827       823       821       824       825
       823       821       824       826       823       821       824       827
       824       827       830       831       824       827       830       832
       824       827       830       833       825       824       827       828
       825       824       827       829       825       824       827       830
       826       824       827       828       826       824       827       829
       826       824       827       830       827       830       833       834
       827       830       833       835       827       830       833       836
       828       827       830       831       828       827       830       832
       828       827       830       833       829       827       830       831
       829       827       830       832       829       827       830       833
       830       833       836       837       830       833       836       838
       830       833       836       839       831       830       833       834
       831       830       833       835       831       830       833       836
       832       830       833       834       832       830       833       835
       832       830       833       836       833       836       839       840
       833       836       839       841       833       836       839       842
       834       833       836       837       834       833       836       838
       834       833       836       839       835       833       836       837
       835       833       836       838       835       833       836       839
       836       839       842       843       836       839       842       844
       836       839       842       845       837       836       839       840
       837       836       839       841       837       836       839       842
       838       836       839       840       838       836       839       841
       838       836       839       842       839       842       845       846
       839       842       845       847       839       842       845       848
       840       839       842       843       840       839       842       844
       840       839       842       845       841       839       842       843
       841       839       842       844       841       839       842       845
       842       845       848       849       842       845       848       850
       842       845       848       851       843       842       845       846
       843       842       845       847       843       842       845       848
       844       842       845       846       844       842       845       847
       844       842       845       848       845       848       851       852
       845       848       851       853       845       848       851       854
       846       845       848       849       846       845       848       850
       846       845       848       851       847       845       848       849
       847       845       848       850       847       845       848       851
       849       848       851       852       849       848       851       853
       849       848       851       854       850       848       851       852
       850       848       851       853       850       848       851       854
       855       859       862       863       855       859       862       864
       855       859       862       869       856       855       859       860
       856       855       859       861       856       855       859       862
       857       855       859       860       857       855       859       861
       857       855       859       862       858       855       859       860
       858       855       859       861       858       855       859       862
       859       862       869       865       860       859       862       863
       860       859       862       864       860       859       862       869
       861       859       862       863       861       859       862       864
       861       859       862       869       862       869       865       866
       862       869       865       867       862       869       865       868
       863       862       869       865       864       862       869       865
       865       868       870       871       865       868       870       872
       865       868       870       873       866       865       868       870
       867       865       868       870       868       870       873       874
       868       870       873       875       868       870       873       881
       869       865       868       870       870       873       875       876
       870       873       881       882       870       873       881       883
       870       873       881       884       871       870       873       874
       871       870       873       875       871       870       873       881
       872       870       873       874       872       870       873       875
       872       870       873       881       873       875       876       877
       873       875       876       878       873       881       884       885
       874       873       875       876       874       873       881       882
       874       873       881       883       874       873       881       884
       875       873       881       882       875       873       881       883
       875       873       881       884       875       876       878       879
       875       876       878       880       875       876       878       890
       876       875       873       881       876       878       890       891
       876       878       890       892       876       878       890       893
       877       876       878       879       877       876       878       880
       877       876       878       890       878       890       893       894
       878       890       893       895       878       890       893       896
       879       878       890       891       879       878       890       892
       879       878       890       893       880       878       890       891
       880       878       890       892       880       878       890       893
       881       884       885       886       881       884       885       887
       882       881       884       885       883       881       884       885
       884       885       887       888       884       885       887       889
       884       885       887       934       885       887       934       935
       885       887       934       936       885       887       934       937
       886       885       887       888       886       885       887       889
       886       885       887       934       887       934       937       938
       887       934       937       939       887       934       937       940
       888       887       934       935       888       887       934       936
       888       887       934       937       889       887       934       935
       889       887       934       936       889       887       934       937
       890       893       896       897       890       893       896       898
       890       893       896       899       891       890       893       894
       891       890       893       895       891       890       893       896
       892       890       893       894       892       890       893       895
       892       890       893       896       893       896       899       900
       893       896       899       901       893       896       899       902
       894       893       896       897       894       893       896       898
       894       893       896       899       895       893       896       897
       895       893       896       898       895       893       896       899
       896       899       902       903       896       899       902       904
       896       899       902       905       897       896       899       900
       897       896       899       901       897       896       899       902
       898       896       899       900       898       896       899       901
       898       896       899       902       899       902       905       906
       899       902       905       907       899       902       905       908
       900       899       902       903       900       899       902       904
       900       899       902       905       901       899       902       903
       901       899       902       904       901       899       902       905
       902       905       908       909       902       905       908       910
       902       905       908       913       903       902       905       906
       903       902       905       907       903       902       905       908
       904       902       905       906       904       902       905       907
       904       902       905       908       905       908       910       911
       905       908       910       912       905       908       910       913
       905       908       913       910       905       908       913       914
       905       908       913       915       906       905       908       909
       906       905       908       910       906       905       908       913
       907       905       908       909       907       905       908       910
       907       905       908       913       908       910       913       914
       908       910       913       915       908       913       910       911
       908       913       910       912       908       913       915       916
       908       913       915       917       908       913       915       918
       909       908       910       911       909       908       910       912
       909       908       910       913       909       908       913       910
       909       908       913       914       909       908       913       915
       910       908       913       914       910       908       913       915
       910       913       915       916       910       913       915       917
       910       913       915       918       911       910       908       913
       911       910       913       914       911       910       913       915
       912       910       908       913       912       910       913       914
       912       910       913       915       913       915       918       919
       913       915       918       920       913       915       918       921
       914       913       915       916       914       913       915       917
       914       913       915       918       915       918       921       922
       915       918       921       923       915       918       921       924
       916       915       918       919       916       915       918       920
       916       915       918       921       917       915       918       919
       917       915       918       920       917       915       918       921
       918       921       924       925       918       921       924       926
       918       921       924       927       919       918       921       922
       919       918       921       923       919       918       921       924
       920       918       921       922       920       918       921       923
       920       918       921       924       921       924       927       928
       921       924       927       929       921       924       927       930
       922       921       924       925       922       921       924       926
       922       921       924       927       923       921       924       925
       923       921       924       926       923       921       924       927
       924       927       930       931       924       927       930       932
       924       927       930       933       925       924       927       928
       925       924       927       929       925       924       927       930
       926       924       927       928       926       924       927       929
       926       924       927       930       928       927       930       931
       928       927       930       932       928       927       930       933
       929       927       930       931       929       927       930       932
       929       927       930       933       934       937       940       941
       934       937       940       942       934       937       940       943
       935       934       937       938       935       934       937       939
       935       934       937       940       936       934       937       938
       936       934       937       939       936       934       937       940
       937       940       943       944       937       940       943       945
       937       940       943       946       938       937       940       941
       938       937       940       942       938       937       940       943
       939       937       940       941       939       937       940       942
       939       937       940       943       940       943       946       947
       940       943       946       948       940       943       946       949
       941       940       943       944       941       940       943       945
       941       940       943       946       942       940       943       944
       942       940       943       945       942       940       943       946
       943       946       949       950       943       946       949       951
       943       946       949       952       944       943       946       947
       944       943       946       948       944       943       946       949
       945       943       946       947       945       943       946       948
       945       943       946       949       946       949       952       953
       946       949       952       954       946       949       952       955
       947       946       949       950       947       946       949       951
       947       946       949       952       948       946       949       950
       948       946       949       951       948       946       949       952
       949       952       955       956       949       952       955       957
       949       952       955       958       950       949       952       953
       950       949       952       954       950       949       952       955
       951       949       952       953       951       949       952       954
       951       949       952       955       952       955       958       959
       952       955       958       960       952       955       958       961
       953       952       955       956       953       952       955       957
       953       952       955       958       954       952       955       956
       954       952       955       957       954       952       955       958
       955       958       961       962       955       958       961       963
       955       958       961       964       956       955       958       959
       956       955       958       960       956       955       958       961
       957       955       958       959       957       955       958       960
       957       955       958       961       958       961       964       965
       958       961       964       966       958       961       964       967
       959       958       961       962       959       958       961       963
       959       958       961       964       960       958       961       962
       960       958       961       963       960       958       961       964
       961       964       967       968       961       964       967       969
       961       964       967       970       962       961       964       965
       962       961       964       966       962       961       964       967
       963       961       964       965       963       961       964       966
       963       961       964       967       964       967       970       971
       964       967       970       972       964       967       970       973
       965       964       967       968       965       964       967       969
       965       964       967       970       966       964       967       968
       966       964       967       969       966       964       967       970
       967       970       973       974       967       970       973       975
       967       970       973       976       968       967       970       971
       968       967       970       972       968       967       970       973
       969       967       970       971       969       967       970       972
       969       967       970       973       971       970       973       974
       971       970       973       975       971       970       973       976
       972       970       973       974       972       970       973       975
       972       970       973       976       977       981       984       985
       977       981       984       986       977       981       984       991
       978       977       981       982       978       977       981       983
       978       977       981       984       979       977       981       982
       979       977       981       983       979       977       981       984
       980       977       981       982       980       977       981       983
       980       977       981       984       981       984       991       987
       982       981       984       985       982       981       984       986
       982       981       984       991       983       981       984       985
       983       981       984       986       983       981       984       991
       984       991       987       988       984       991       987       989
       984       991       987       990       985       984       991       987
       986       984       991       987       987       990       992       993
       987       990       992       994       987       990       992       995
       988       987       990       992       989       987       990       992
       990       992       995       996       990       992       995       997
       990       992       995      1003       991       987       990       992
       992       995       997       998       992       995      1003      1004
       992       995      1003      1005       992       995      1003      1006
       993       992       995       996       993       992       995       997
       993       992       995      1003       994       992       995       996
       994       992       995       997       994       992       995      1003
       995       997       998       999       995       997       998      1000
       995      1003      1006      1007       996       995       997       998
       996       995      1003      1004       996       995      1003      1005
       996       995      1003      1006       997       995      1003      1004
       997       995      1003      1005       997       995      1003      1006
       997       998      1000      1001       997       998      1000      1002
       997       998      1000      1012       998       997       995      1003
       998      1000      1012      1013       998      1000      1012      1014
       998      1000      1012      1015       999       998      1000      1001
       999       998      1000      1002       999       998      1000      1012
      1000      1012      1015      1016      1000      1012      1015      1017
      1000      1012      1015      1018      1001      1000      1012      1013
      1001      1000      1012      1014      1001      1000      1012      1015
      1002      1000      1012      1013      1002      1000      1012      1014
      1002      1000      1012      1015      1003      1006      1007      1008
      1003      1006      1007      1009      1004      1003      1006      1007
      1005      1003      1006      1007      1006      1007      1009      1010
      1006      1007      1009      1011      1006      1007      1009      1059
      1007      1009      1059      1060      1007      1009      1059      1061
      1007      1009      1059      1062      1008      1007      1009      1010
      1008      1007      1009      1011      1008      1007      1009      1059
      1009      1059      1062      1063      1009      1059      1062      1064
      1009      1059      1062      1065      1010      1009      1059      1060
      1010      1009      1059      1061      1010      1009      1059      1062
      1011      1009      1059      1060      1011      1009      1059      1061
      1011      1009      1059      1062      1012      1015      1018      1019
      1012      1015      1018      1020      1012      1015      1018      1021
      1013      1012      1015      1016      1013      1012      1015      1017
      1013      1012      1015      1018      1014      1012      1015      1016
      1014      1012      1015      1017      1014      1012      1015      1018
      1015      1018      1021      1022      1015      1018      1021      1023
      1015      1018      1021      1024      1016      1015      1018      1019
      1016      1015      1018      1020      1016      1015      1018      1021
      1017      1015      1018      1019      1017      1015      1018      1020
      1017      1015      1018      1021      1018      1021      1024      1025
      1018      1021      1024      1026      1018      1021      1024      1027
      1019      1018      1021      1022      1019      1018      1021      1023
      1019      1018      1021      1024      1020      1018      1021      1022
      1020      1018      1021      1023      1020      1018      1021      1024
      1021      1024      1027      1028      1021      1024      1027      1029
      1021      1024      1027      1030      1022      1021      1024      1025
      1022      1021      1024      1026      1022      1021      1024      1027
      1023      1021      1024      1025      1023      1021      1024      1026
      1023      1021      1024      1027      1024      1027      1030      1031
      1024      1027      1030      1032      1025      1024      1027      1028
      1025      1024      1027      1029      1025      1024      1027      1030
      1026      1024      1027      1028      1026      1024      1027      1029
      1026      1024      1027      1030      1027      1030      1032      1033
      1027      1030      1032      1034      1028      1027      1030      1031
      1028      1027      1030      1032      1029      1027      1030      1031
      1029      1027      1030      1032      1030      1032      1034      1035
      1030      1032      1034      1036      1030      1032      1034      1037
      1031      1030      1032      1033      1031      1030      1032      1034
      1032      1034      1037      1038      1032      1034      1037      1039
      1032      1034      1037      1040      1033      1032      1034      1035
      1033      1032      1034      1036      1033      1032      1034      1037
      1034      1037      1040      1041      1034      1037      1040      1042
      1034      1037      1040      1043      1035      1034      1037      1038
      1035      1034      1037      1039      1035      1034      1037      1040
      1036      1034      1037      1038      1036      1034      1037      1039
      1036      1034      1037      1040      1037      1040      1043      1044
      1037      1040      1043      1045      1037      1040      1043      1046
      1038      1037      1040      1041      1038      1037      1040      1042
      1038      1037      1040      1043      1039      1037      1040      1041
      1039      1037      1040      1042      1039      1037      1040      1043
      1040      1043      1046      1047      1040      1043      1046      1048
      1040      1043      1046      1049      1041      1040      1043      1044
      1041      1040      1043      1045      1041      1040      1043      1046
      1042      1040      1043      1044      1042      1040      1043      1045
      1042      1040      1043      1046      1043      1046      1049      1050
      1043      1046      1049      1051      1043      1046      1049      1052
      1044      1043      1046      1047      1044      1043      1046      1048
      1044      1043      1046      1049      1045      1043      1046      1047
      1045      1043      1046      1048      1045      1043      1046      1049
      1046      1049      1052      1053      1046      1049      1052      1054
      1046      1049      1052      1055      1047      1046      1049      1050
      1047      1046      1049      1051      1047      1046      1049      1052
      1048      1046      1049      1050      1048      1046      1049      1051
      1048      1046      1049      1052      1049      1052      1055      1056
      1049      1052      1055      1057      1049      1052      1055      1058
      1050      1049      1052      1053      1050      1049      1052      1054
      1050      1049      1052      1055      1051      1049      1052      1053
      1051      1049      1052      1054      1051      1049      1052      1055
      1053      1052      1055      1056      1053      1052      1055      1057
      1053      1052      1055      1058      1054      1052      1055      1056
      1054      1052      1055      1057      1054      1052      1055      1058
      1059      1062      1065      1066      1059      1062      1065      1067
      1059      1062      1065      1068      1060      1059      1062      1063
      1060      1059      1062      1064      1060      1059      1062      1065
      1061      1059      1062      1063      1061      1059      1062      1064
      1061      1059      1062      1065      1062      1065      1068      1069
      1062      1065      1068      1070      1062      1065      1068      1071
      1063      1062      1065      1066      1063      1062      1065      1067
      1063      1062      1065      1068      1064      1062      1065      1066
      1064      1062      1065      1067      1064      1062      1065      1068
      1065      1068      1071      1072      1065      1068      1071      1073
      1065      1068      1071      1074      1066      1065      1068      1069
      1066      1065      1068      1070      1066      1065      1068      1071
      1067      1065      1068      1069      1067      1065      1068      1070
      1067      1065      1068      1071      1068      1071      1074      1075
      1068      1071      1074      1076      1068      1071      1074      1077
      1069      1068      1071      1072      1069      1068      1071      1073
      1069      1068      1071      1074      1070      1068      1071      1072
      1070      1068      1071      1073      1070      1068      1071      1074
      1071      1074      1077      1078      1071      1074      1077      1079
      1071      1074      1077      1080      1072      1071      1074      1075
      1072      1071      1074      1076      1072      1071      1074      1077
      1073      1071      1074      1075      1073      1071      1074      1076
      1073      1071      1074      1077      1074      1077      1080      1081
      1074      1077      1080      1082      1074      1077      1080      1083
      1075      1074      1077      1078      1075      1074      1077      1079
      1075      1074      1077      1080      1076      1074      1077      1078
      1076      1074      1077      1079      1076      1074      1077      1080
      1077      1080      1083      1084      1077      1080      1083      1085
      1077      1080      1083      1086      1078      1077      1080      1081
      1078      1077      1080      1082      1078      1077      1080      1083
      1079      1077      1080      1081      1079      1077      1080      1082
      1079      1077      1080      1083      1080      1083      1086      1087
      1080      1083      1086      1088      1080      1083      1086      1089
      1081      1080      1083      1084      1081      1080      1083      1085
      1081      1080      1083      1086      1082      1080      1083      1084
      1082      1080      1083      1085      1082      1080      1083      1086
      1083      1086      1089      1090      1083      1086      1089      1091
      1083      1086      1089      1092      1084      1083      1086      1087
      1084      1083      1086      1088      1084      1083      1086      1089
      1085      1083      1086      1087      1085      1083      1086      1088
      1085      1083      1086      1089      1086      1089      1092      1093
      1086      1089      1092      1094      1086      1089      1092      1095
      1087      1086      1089      1090      1087      1086      1089      1091
      1087      1086      1089      1092      1088      1086      1089      1090
      1088      1086      1089      1091      1088      1086      1089      1092
      1089      1092      1095      1096      1089      1092      1095      1097
      1089      1092      1095      1098      1090      1089      1092      1093
      1090      1089      1092      1094      1090      1089      1092      1095
      1091      1089      1092      1093      1091      1089      1092      1094
      1091      1089      1092      1095      1092      1095      1098      1099
      1092      1095      1098      1100      1092      1095      1098      1101
      1093      1092      1095      1096      1093      1092      1095      1097
      1093      1092      1095      1098      1094      1092      1095      1096
      1094      1092      1095      1097      1094      1092      1095      1098
      1096      1095      1098      1099      1096      1095      1098      1100
      1096      1095      1098      1101      1097      1095      1098      1099
      1097      1095      1098      1100      1097      1095      1098      1101
      1102      1106      1109      1110      1102      1106      1109      1111
      1102      1106      1109      1116      1103      1102      1106      1107
      1103      1102      1106      1108      1103      1102      1106      1109
      1104      1102      1106      1107      1104      1102      1106      1108
      1104      1102      1106      1109      1105      1102      1106      1107
      1105      1102      1106      1108      1105      1102      1106      1109
      1106      1109      1116      1112      1107      1106      1109      1110
      1107      1106      1109      1111      1107      1106      1109      1116
      1108      1106      1109      1110      1108      1106      1109      1111
      1108      1106      1109      1116      1109      1116      1112      1113
      1109      1116      1112      1114      1109      1116      1112      1115
      1110      1109      1116      1112      1111      1109      1116      1112
      1112      1115      1117      1118      1112      1115      1117      1119
      1112      1115      1117      1120      1113      1112      1115      1117
      1114      1112      1115      1117      1115      1117      1120      1121
      1115      1117      1120      1122      1115      1117      1120      1128
      1116      1112      1115      1117      1117      1120      1122      1123
      1117      1120      1128      1129      1117      1120      1128      1130
      1117      1120      1128      1131      1118      1117      1120      1121
      1118      1117      1120      1122      1118      1117      1120      1128
      1119      1117      1120      1121      1119      1117      1120      1122
      1119      1117      1120      1128      1120      1122      1123      1124
      1120      1122      1123      1125      1120      1128      1131      1132
      1121      1120      1122      1123      1121      1120      1128      1129
      1121      1120      1128      1130      1121      1120      1128      1131
      1122      1120      1128      1129      1122      1120      1128      1130
      1122      1120      1128      1131      1122      1123      1125      1126
      1122      1123      1125      1127      1122      1123      1125      1137
      1123      1122      1120      1128      1123      1125      1137      1138
      1123      1125      1137      1139      1123      1125      1137      1140
      1124      1123      1125      1126      1124      1123      1125      1127
      1124      1123      1125      1137      1125      1137      1140      1141
      1125      1137      1140      1142      1125      1137      1140      1143
      1126      1125      1137      1138      1126      1125      1137      1139
      1126      1125      1137      1140      1127      1125      1137      1138
      1127      1125      1137      1139      1127      1125      1137      1140
      1128      1131      1132      1133      1128      1131      1132      1134
      1129      1128      1131      1132      1130      1128      1131      1132
      1131      1132      1134      1135      1131      1132      1134      1136
      1131      1132      1134      1181      1132      1134      1181      1182
      1132      1134      1181      1183      1132      1134      1181      1184
      1133      1132      1134      1135      1133      1132      1134      1136
      1133      1132      1134      1181      1134      1181      1184      1185
      1134      1181      1184      1186      1134      1181      1184      1187
      1135      1134      1181      1182      1135      1134      1181      1183
      1135      1134      1181      1184      1136      1134      1181      1182
      1136      1134      1181      1183      1136      1134      1181      1184
      1137      1140      1143      1144      1137      1140      1143      1145
      1137      1140      1143      1146      1138      1137      1140      1141
      1138      1137      1140      1142      1138      1137      1140      1143
      1139      1137      1140      1141      1139      1137      1140      1142
      1139      1137      1140      1143      1140      1143      1146      1147
      1140      1143      1146      1148      1140      1143      1146      1149
      1141      1140      1143      1144      1141      1140      1143      1145
      1141      1140      1143      1146      1142      1140      1143      1144
      1142      1140      1143      1145      1142      1140      1143      1146
      1143      1146      1149      1150      1143      1146      1149      1151
      1143      1146      1149      1152      1144      1143      1146      1147
      1144      1143      1146      1148      1144      1143      1146      1149
      1145      1143      1146      1147      1145      1143      1146      1148
      1145      1143      1146      1149      1146      1149      1152      1153
      1146      1149      1152      1154      1146      1149      1152      1155
      1147      1146      1149      1150      1147      1146      1149      1151
      1147      1146      1149      1152      1148      1146      1149      1150
      1148      1146      1149      1151      1148      1146      1149      1152
      1149      1152      1155      1156      1149      1152      1155      1157
      1149      1152      1155      1160      1150      1149      1152      1153
      1150      1149      1152      1154      1150      1149      1152      1155
      1151      1149      1152      1153      1151      1149      1152      1154
      1151      1149      1152      1155      1152      1155      1157      1158
      1152      1155      1157      1159      1152      1155      1157      1160
      1152      1155      1160      1157      1152      1155      1160      1161
      1152      1155      1160      1162      1153      1152      1155      1156
      1153      1152      1155      1157      1153      1152      1155      1160
      1154      1152      1155      1156      1154      1152      1155      1157
      1154      1152      1155      1160      1155      1157      1160      1161
      1155      1157      1160      1162      1155      1160      1157      1158
      1155      1160      1157      1159      1155      1160      1162      1163
      1155      1160      1162      1164      1155      1160      1162      1165
      1156      1155      1157      1158      1156      1155      1157      1159
      1156      1155      1157      1160      1156      1155      1160      1157
      1156      1155      1160      1161      1156      1155      1160      1162
      1157      1155      1160      1161      1157      1155      1160      1162
      1157      1160      1162      1163      1157      1160      1162      1164
      1157      1160      1162      1165      1158      1157      1155      1160
      1158      1157      1160      1161      1158      1157      1160      1162
      1159      1157      1155      1160      1159      1157      1160      1161
      1159      1157      1160      1162      1160      1162      1165      1166
      1160      1162      1165      1167      1160      1162      1165      1168
      1161      1160      1162      1163      1161      1160      1162      1164
      1161      1160      1162      1165      1162      1165      1168      1169
      1162      1165      1168      1170      1162      1165      1168      1171
      1163      1162      1165      1166      1163      1162      1165      1167
      1163      1162      1165      1168      1164      1162      1165      1166
      1164      1162      1165      1167      1164      1162      1165      1168
      1165      1168      1171      1172      1165      1168      1171      1173
      1165      1168      1171      1174      1166      1165      1168      1169
      1166      1165      1168      1170      1166      1165      1168      1171
      1167      1165      1168      1169      1167      1165      1168      1170
      1167      1165      1168      1171      1168      1171      1174      1175
      1168      1171      1174      1176      1168      1171      1174      1177
      1169      1168      1171      1172      1169      1168      1171      1173
      1169      1168      1171      1174      1170      1168      1171      1172
      1170      1168      1171      1173      1170      1168      1171      1174
      1171      1174      1177      1178      1171      1174      1177      1179
      1171      1174      1177      1180      1172      1171      1174      1175
      1172      1171      1174      1176      1172      1171      1174      1177
      1173      1171      1174      1175      1173      1171      1174      1176
      1173      1171      1174      1177      1175      1174      1177      1178
      1175      1174      1177      1179      1175      1174      1177      1180
      1176      1174      1177      1178      1176      1174      1177      1179
      1176      1174      1177      1180      1181      1184      1187      1188
      1181      1184      1187      1189      1181      1184      1187      1190
      1182      1181      1184      1185      1182      1181      1184      1186
      1182      1181      1184      1187      1183      1181      1184      1185
      1183      1181      1184      1186      1183      1181      1184      1187
      1184      1187      1190      1191      1184      1187      1190      1192
      1184      1187      1190      1193      1185      1184      1187      1188
      1185      1184      1187      1189      1185      1184      1187      1190
      1186      1184      1187      1188      1186      1184      1187      1189
      1186      1184      1187      1190      1187      1190      1193      1194
      1187      1190      1193      1195      1187      1190      1193      1196
      1188      1187      1190      1191      1188      1187      1190      1192
      1188      1187      1190      1193      1189      1187      1190      1191
      1189      1187      1190      1192      1189      1187      1190      1193
      1190      1193      1196      1197      1190      1193      1196      1198
      1190      1193      1196      1199      1191      1190      1193      1194
      1191      1190      1193      1195      1191      1190      1193      1196
      1192      1190      1193      1194      1192      1190      1193      1195
      1192      1190      1193      1196      1193      1196      1199      1200
      1193      1196      1199      1201      1193      1196      1199      1202
      1194      1193      1196      1197      1194      1193      1196      1198
      1194      1193      1196      1199      1195      1193      1196      1197
      1195      1193      1196      1198      1195      1193      1196      1199
      1196      1199      1202      1203      1196      1199      1202      1204
      1196      1199      1202      1205      1197      1196      1199      1200
      1197      1196      1199      1201      1197      1196      1199      1202
      1198      1196      1199      1200      1198      1196      1199      1201
      1198      1196      1199      1202      1199      1202      1205      1206
      1199      1202      1205      1207      1199      1202      1205      1208
      1200      1199      1202      1203      1200      1199      1202      1204
      1200      1199      1202      1205      1201      1199      1202      1203
      1201      1199      1202      1204      1201      1199      1202      1205
      1202      1205      1208      1209      1202      1205      1208      1210
      1202      1205      1208      1211      1203      1202      1205      1206
      1203      1202      1205      1207      1203      1202      1205      1208
      1204      1202      1205      1206      1204      1202      1205      1207
      1204      1202      1205      1208      1205      1208      1211      1212
      1205      1208      1211      1213      1205      1208      1211      1214
      1206      1205      1208      1209      1206      1205      1208      1210
      1206      1205      1208      1211      1207      1205      1208      1209
      1207      1205      1208      1210      1207      1205      1208      1211
      1208      1211      1214      1215      1208      1211      1214      1216
      1208      1211      1214      1217      1209      1208      1211      1212
      1209      1208      1211      1213      1209      1208      1211      1214
      1210      1208      1211      1212      1210      1208      1211      1213
      1210      1208      1211      1214      1211      1214      1217      1218
      1211      1214      1217      1219      1211      1214      1217      1220
      1212      1211      1214      1215      1212      1211      1214      1216
      1212      1211      1214      1217      1213      1211      1214      1215
      1213      1211      1214      1216      1213      1211      1214      1217
      1214      1217      1220      1221      1214      1217      1220      1222
      1214      1217      1220      1223      1215      1214      1217      1218
      1215      1214      1217      1219      1215      1214      1217      1220
      1216      1214      1217      1218      1216      1214      1217      1219
      1216      1214      1217      1220      1218      1217      1220      1221
      1218      1217      1220      1222      1218      1217      1220      1223
      1219      1217      1220      1221      1219      1217      1220      1222
      1219      1217      1220      1223      1224      1228      1231      1232
      1224      1228      1231      1233      1224      1228      1231      1238
      1225      1224      1228      1229      1225      1224      1228      1230
      1225      1224      1228      1231      1226      1224      1228      1229
      1226      1224      1228      1230      1226      1224      1228      1231
      1227      1224      1228      1229      1227      1224      1228      1230
      1227      1224      1228      1231      1228      1231      1238      1234
      1229      1228      1231      1232      1229      1228      1231      1233
      1229      1228      1231      1238      1230      1228      1231      1232
      1230      1228      1231      1233      1230      1228      1231      1238
      1231      1238      1234      1235      1231      1238      1234      1236
      1231      1238      1234      1237      1232      1231      1238      1234
      1233      1231      1238      1234      1234      1237      1239      1240
      1234      1237      1239      1241      1234      1237      1239      1242
      1235      1234      1237      1239      1236      1234      1237      1239
      1237      1239      1242      1243      1237      1239      1242      1244
      1237      1239      1242      1250      1238      1234      1237      1239
      1239      1242      1244      1245      1239      1242      1250      1251
      1239      1242      1250      1252      1239      1242      1250      1253
      1240      1239      1242      1243      1240      1239      1242      1244
      1240      1239      1242      1250      1241      1239      1242      1243
      1241      1239      1242      1244      1241      1239      1242      1250
      1242      1244      1245      1246      1242      1244      1245      1247
      1242      1250      1253      1254      1243      1242      1244      1245
      1243      1242      1250      1251      1243      1242      1250      1252
      1243      1242      1250      1253      1244      1242      1250      1251
      1244      1242      1250      1252      1244      1242      1250      1253
      1244      1245      1247      1248      1244      1245      1247      1249
      1244      1245      1247      1259      1245      1244      1242      1250
      1245      1247      1259      1260      1245      1247      1259      1261
      1245      1247      1259      1262      1246      1245      1247      1248
      1246      1245      1247      1249      1246      1245      1247      1259
      1247      1259      1262      1263      1247      1259      1262      1264
      1247      1259      1262      1265      1248      1247      1259      1260
      1248      1247      1259      1261      1248      1247      1259      1262
      1249      1247      1259      1260      1249      1247      1259      1261
      1249      1247      1259      1262      1250      1253      1254      1255
      1250      1253      1254      1256      1251      1250      1253      1254
      1252      1250      1253      1254      1253      1254      1256      1257
      1253      1254      1256      1258      1253      1254      1256      1306
      1254      1256      1306      1307      1254      1256      1306      1308
      1254      1256      1306      1309      1255      1254      1256      1257
      1255      1254      1256      1258      1255      1254      1256      1306
      1256      1306      1309      1310      1256      1306      1309      1311
      1256      1306      1309      1312      1257      1256      1306      1307
      1257      1256      1306      1308      1257      1256      1306      1309
      1258      1256      1306      1307      1258      1256      1306      1308
      1258      1256      1306      1309      1259      1262      1265      1266
      1259      1262      1265      1267      1259      1262      1265      1268
      1260      1259      1262      1263      1260      1259      1262      1264
      1260      1259      1262      1265      1261      1259      1262      1263
      1261      1259      1262      1264      1261      1259      1262      1265
      1262      1265      1268      1269      1262      1265      1268      1270
      1262      1265      1268      1271      1263      1262      1265      1266
      1263      1262      1265      1267      1263      1262      1265      1268
      1264      1262      1265      1266      1264      1262      1265      1267
      1264      1262      1265      1268      1265      1268      1271      1272
      1265      1268      1271      1273      1265      1268      1271      1274
      1266      1265      1268      1269      1266      1265      1268      1270
      1266      1265      1268      1271      1267      1265      1268      1269
      1267      1265      1268      1270      1267      1265      1268      1271
      1268      1271      1274      1275      1268      1271      1274      1276
      1268      1271      1274      1277      1269      1268      1271      1272
      1269      1268      1271      1273      1269      1268      1271      1274
      1270      1268      1271      1272      1270      1268      1271      1273
      1270      1268      1271      1274      1271      1274      1277      1278
      1271      1274      1277      1279      1272      1271      1274      1275
      1272      1271      1274      1276      1272      1271      1274      1277
      1273      1271      1274      1275      1273      1271      1274      1276
      1273      1271      1274      1277      1274      1277      1279      1280
      1274      1277      1279      1281      1275      1274      1277      1278
      1275      1274      1277      1279      1276      1274      1277      1278
      1276      1274      1277      1279      1277      1279      1281      1282
      1277      1279      1281      1283      1277      1279      1281      1284
      1278      1277      1279      1280      1278      1277      1279      1281
      1279      1281      1284      1285      1279      1281      1284      1286
      1279      1281      1284      1287      1280      1279      1281      1282
      1280      1279      1281      1283      1280      1279      1281      1284
      1281      1284      1287      1288      1281      1284      1287      1289
      1281      1284      1287      1290      1282      1281      1284      1285
      1282      1281      1284      1286      1282      1281      1284      1287
      1283      1281      1284      1285      1283      1281      1284      1286
      1283      1281      1284      1287      1284      1287      1290      1291
      1284      1287      1290      1292      1284      1287      1290      1293
      1285      1284      1287      1288      1285      1284      1287      1289
      1285      1284      1287      1290      1286      1284      1287      1288
      1286      1284      1287      1289      1286      1284      1287      1290
      1287      1290      1293      1294      1287      1290      1293      1295
      1287      1290      1293      1296      1288      1287      1290      1291
      1288      1287      1290      1292      1288      1287      1290      1293
      1289      1287      1290      1291      1289      1287      1290      1292
      1289      1287      1290      1293      1290      1293      1296      1297
      1290      1293      1296      1298      1290      1293      1296      1299
      1291      1290      1293      1294      1291      1290      1293      1295
      1291      1290      1293      1296      1292      1290      1293      1294
      1292      1290      1293      1295      1292      1290      1293      1296
      1293      1296      1299      1300      1293      1296      1299      1301
      1293      1296      1299      1302      1294      1293      1296      1297
      1294      1293      1296      1298      1294      1293      1296      1299
      1295      1293      1296      1297      1295      1293      1296      1298
      1295      1293      1296      1299      1296      1299      1302      1303
      1296      1299      1302      1304      1296      1299      1302      1305
      1297      1296      1299      1300      1297      1296      1299      1301
      1297      1296      1299      1302      1298      1296      1299      1300
      1298      1296      1299      1301      1298      1296      1299      1302
      1300      1299      1302      1303      1300      1299      1302      1304
      1300      1299      1302      1305      1301      1299      1302      1303
      1301      1299      1302      1304      1301      1299      1302      1305
      1306      1309      1312      1313      1306      1309      1312      1314
      1306      1309      1312      1315      1307      1306      1309      1310
      1307      1306      1309      1311      1307      1306      1309      1312
      1308      1306      1309      1310      1308      1306      1309      1311
      1308      1306      1309      1312      1309      1312      1315      1316
      1309      1312      1315      1317      1309      1312      1315      1318
      1310      1309      1312      1313      1310      1309      1312      1314
      1310      1309      1312      1315      1311      1309      1312      1313
      1311      1309      1312      1314      1311      1309      1312      1315
      1312      1315      1318      1319      1312      1315      1318      1320
      1312      1315      1318      1321      1313      1312      1315      1316
      1313      1312      1315      1317      1313      1312      1315      1318
      1314      1312      1315      1316      1314      1312      1315      1317
      1314      1312      1315      1318      1315      1318      1321      1322
      1315      1318      1321      1323      1315      1318      1321      1324
      1316      1315      1318      1319      1316      1315      1318      1320
      1316      1315      1318      1321      1317      1315      1318      1319
      1317      1315      1318      1320      1317      1315      1318      1321
      1318      1321      1324      1325      1318      1321      1324      1326
      1318      1321      1324      1327      1319      1318      1321      1322
      1319      1318      1321      1323      1319      1318      1321      1324
      1320      1318      1321      1322      1320      1318      1321      1323
      1320      1318      1321      1324      1321      1324      1327      1328
      1321      1324      1327      1329      1321      1324      1327      1330
      1322      1321      1324      1325      1322      1321      1324      1326
      1322      1321      1324      1327      1323      1321      1324      1325
      1323      1321      1324      1326      1323      1321      1324      1327
      1324      1327      1330      1331      1324      1327      1330      1332
      1324      1327      1330      1333      1325      1324      1327      1328
      1325      1324      1327      1329      1325      1324      1327      1330
      1326      1324      1327      1328      1326      1324      1327      1329
      1326      1324      1327      1330      1327      1330      1333      1334
      1327      1330      1333      1335      1327      1330      1333      1336
      1328      1327      1330      1331      1328      1327      1330      1332
      1328      1327      1330      1333      1329      1327      1330      1331
      1329      1327      1330      1332      1329      1327      1330      1333
      1330      1333      1336      1337      1330      1333      1336      1338
      1330      1333      1336      1339      1331      1330      1333      1334
      1331      1330      1333      1335      1331      1330      1333      1336
      1332      1330      1333      1334      1332      1330      1333      1335
      1332      1330      1333      1336      1333      1336      1339      1340
      1333      1336      1339      1341      1333      1336      1339      1342
      1334      1333      1336      1337      1334      1333      1336      1338
      1334      1333      1336      1339      1335      1333      1336      1337
      1335      1333      1336      1338      1335      1333      1336      1339
      1336      1339      1342      1343      1336      1339      1342      1344
      1336      1339      1342      1345      1337      1336      1339      1340
      1337      1336      1339      1341      1337      1336      1339      1342
      1338      1336      1339      1340      1338      1336      1339      1341
      1338      1336      1339      1342      1339      1342      1345      1346
      1339      1342      1345      1347      1339      1342      1345      1348
      1340      1339      1342      1343      1340      1339      1342      1344
      1340      1339      1342      1345      1341      1339      1342      1343
      1341      1339      1342      1344      1341      1339      1342      1345
      1343      1342      1345      1346      1343      1342      1345      1347
      1343      1342      1345      1348      1344      1342      1345      1346
      1344      1342      1345      1347      1344      1342      1345      1348
      1349      1353      1356      1357      1349      1353      1356      1358
      1349      1353      1356      1363      1350      1349      1353      1354
      1350      1349      1353      1355      1350      1349      1353      1356
      1351      1349      1353      1354      1351      1349      1353      1355
      1351      1349      1353      1356      1352      1349      1353      1354
      1352      1349      1353      1355      1352      1349      1353      1356
      1353      1356      1363      1359      1354      1353      1356      1357
      1354      1353      1356      1358      1354      1353      1356      1363
      1355      1353      1356      1357      1355      1353      1356      1358
      1355      1353      1356      1363      1356      1363      1359      1360
      1356      1363      1359      1361      1356      1363      1359      1362
      1357      1356      1363      1359      1358      1356      1363      1359
      1359      1362      1364      1365      1359      1362      1364      1366
      1359      1362      1364      1367      1360      1359      1362      1364
      1361      1359      1362      1364      1362      1364      1367      1368
      1362      1364      1367      1369      1362      1364      1367      1375
      1363      1359      1362      1364      1364      1367      1369      1370
      1364      1367      1375      1376      1364      1367      1375      1377
      1364      1367      1375      1378      1365      1364      1367      1368
      1365      1364      1367      1369      1365      1364      1367      1375
      1366      1364      1367      1368      1366      1364      1367      1369
      1366      1364      1367      1375      1367      1369      1370      1371
      1367      1369      1370      1372      1367      1375      1378      1379
      1368      1367      1369      1370      1368      1367      1375      1376
      1368      1367      1375      1377      1368      1367      1375      1378
      1369      1367      1375      1376      1369      1367      1375      1377
      1369      1367      1375      1378      1369      1370      1372      1373
      1369      1370      1372      1374      1369      1370      1372      1384
      1370      1369      1367      1375      1370      1372      1384      1385
      1370      1372      1384      1386      1370      1372      1384      1387
      1371      1370      1372      1373      1371      1370      1372      1374
      1371      1370      1372      1384      1372      1384      1387      1388
      1372      1384      1387      1389      1372      1384      1387      1390
      1373      1372      1384      1385      1373      1372      1384      1386
      1373      1372      1384      1387      1374      1372      1384      1385
      1374      1372      1384      1386      1374      1372      1384      1387
      1375      1378      1379      1380      1375      1378      1379      1381
      1376      1375      1378      1379      1377      1375      1378      1379
      1378      1379      1381      1382      1378      1379      1381      1383
      1378      1379      1381      1428      1379      1381      1428      1429
      1379      1381      1428      1430      1379      1381      1428      1431
      1380      1379      1381      1382      1380      1379      1381      1383
      1380      1379      1381      1428      1381      1428      1431      1432
      1381      1428      1431      1433      1381      1428      1431      1434
      1382      1381      1428      1429      1382      1381      1428      1430
      1382      1381      1428      1431      1383      1381      1428      1429
      1383      1381      1428      1430      1383      1381      1428      1431
      1384      1387      1390      1391      1384      1387      1390      1392
      1384      1387      1390      1393      1385      1384      1387      1388
      1385      1384      1387      1389      1385      1384      1387      1390
      1386      1384      1387      1388      1386      1384      1387      1389
      1386      1384      1387      1390      1387      1390      1393      1394
      1387      1390      1393      1395      1387      1390      1393      1396
      1388      1387      1390      1391      1388      1387      1390      1392
      1388      1387      1390      1393      1389      1387      1390      1391
      1389      1387      1390      1392      1389      1387      1390      1393
      1390      1393      1396      1397      1390      1393      1396      1398
      1390      1393      1396      1399      1391      1390      1393      1394
      1391      1390      1393      1395      1391      1390      1393      1396
      1392      1390      1393      1394      1392      1390      1393      1395
      1392      1390      1393      1396      1393      1396      1399      1400
      1393      1396      1399      1401      1393      1396      1399      1402
      1394      1393      1396      1397      1394      1393      1396      1398
      1394      1393      1396      1399      1395      1393      1396      1397
      1395      1393      1396      1398      1395      1393      1396      1399
      1396      1399      1402      1403      1396      1399      1402      1404
      1396      1399      1402      1407      1397      1396      1399      1400
      1397      1396      1399      1401      1397      1396      1399      1402
      1398      1396      1399      1400      1398      1396      1399      1401
      1398      1396      1399      1402      1399      1402      1404      1405
      1399      1402      1404      1406      1399      1402      1404      1407
      1399      1402      1407      1404      1399      1402      1407      1408
      1399      1402      1407      1409      1400      1399      1402      1403
      1400      1399      1402      1404      1400      1399      1402      1407
      1401      1399      1402      1403      1401      1399      1402      1404
      1401      1399      1402      1407      1402      1404      1407      1408
      1402      1404      1407      1409      1402      1407      1404      1405
      1402      1407      1404      1406      1402      1407      1409      1410
      1402      1407      1409      1411      1402      1407      1409      1412
      1403      1402      1404      1405      1403      1402      1404      1406
      1403      1402      1404      1407      1403      1402      1407      1404
      1403      1402      1407      1408      1403      1402      1407      1409
      1404      1402      1407      1408      1404      1402      1407      1409
      1404      1407      1409      1410      1404      1407      1409      1411
      1404      1407      1409      1412      1405      1404      1402      1407
      1405      1404      1407      1408      1405      1404      1407      1409
      1406      1404      1402      1407      1406      1404      1407      1408
      1406      1404      1407      1409      1407      1409      1412      1413
      1407      1409      1412      1414      1407      1409      1412      1415
      1408      1407      1409      1410      1408      1407      1409      1411
      1408      1407      1409      1412      1409      1412      1415      1416
      1409      1412      1415      1417      1409      1412      1415      1418
      1410      1409      1412      1413      1410      1409      1412      1414
      1410      1409      1412      1415      1411      1409      1412      1413
      1411      1409      1412      1414      1411      1409      1412      1415
      1412      1415      1418      1419      1412      1415      1418      1420
      1412      1415      1418      1421      1413      1412      1415      1416
      1413      1412      1415      1417      1413      1412      1415      1418
      1414      1412      1415      1416      1414      1412      1415      1417
      1414      1412      1415      1418      1415      1418      1421      1422
      1415      1418      1421      1423      1415      1418      1421      1424
      1416      1415      1418      1419      1416      1415      1418      1420
      1416      1415      1418      1421      1417      1415      1418      1419
      1417      1415      1418      1420      1417      1415      1418      1421
      1418      1421      1424      1425      1418      1421      1424      1426
      1418      1421      1424      1427      1419      1418      1421      1422
      1419      1418      1421      1423      1419      1418      1421      1424
      1420      1418      1421      1422      1420      1418      1421      1423
      1420      1418      1421      1424      1422      1421      1424      1425
      1422      1421      1424      1426      1422      1421      1424      1427
      1423      1421      1424      1425      1423      1421      1424      1426
      1423      1421      1424      1427      1428      1431      1434      1435
      1428      1431      1434      1436      1428      1431      1434      1437
      1429      1428      1431      1432      1429      1428      1431      1433
      1429      1428      1431      1434      1430      1428      1431      1432
      1430      1428      1431      1433      1430      1428      1431      1434
      1431      1434      1437      1438      1431      1434      1437      1439
      1431      1434      1437      1440      1432      1431      1434      1435
      1432      1431      1434      1436      1432      1431      1434      1437
      1433      1431      1434      1435      1433      1431      1434      1436
      1433      1431      1434      1437      1434      1437      1440      1441
      1434      1437      1440      1442      1434      1437      1440      1443
      1435      1434      1437      1438      1435      1434      1437      1439
      1435      1434      1437      1440      1436      1434      1437      1438
      1436      1434      1437      1439      1436      1434      1437      1440
      1437      1440      1443      1444      1437      1440      1443      1445
      1437      1440      1443      1446      1438      1437      1440      1441
      1438      1437      1440      1442      1438      1437      1440      1443
      1439      1437      1440      1441      1439      1437      1440      1442
      1439      1437      1440      1443      1440      1443      1446      1447
      1440      1443      1446      1448      1440      1443      1446      1449
      1441      1440      1443      1444      1441      1440      1443      1445
      1441      1440      1443      1446      1442      1440      1443      1444
      1442      1440      1443      1445      1442      1440      1443      1446
      1443      1446      1449      1450      1443      1446      1449      1451
      1443      1446      1449      1452      1444      1443      1446      1447
      1444      1443      1446      1448      1444      1443      1446      1449
      1445      1443      1446      1447      1445      1443      1446      1448
      1445      1443      1446      1449      1446      1449      1452      1453
      1446      1449      1452      1454      1446      1449      1452      1455
      1447      1446      1449      1450      1447      1446      1449      1451
      1447      1446      1449      1452      1448      1446      1449      1450
      1448      1446      1449      1451      1448      1446      1449      1452
      1449      1452      1455      1456      1449      1452      1455      1457
      1449      1452      1455      1458      1450      1449      1452      1453
      1450      1449      1452      1454      1450      1449      1452      1455
      1451      1449      1452      1453      1451      1449      1452      1454
      1451      1449      1452      1455      1452      1455      1458      1459
      1452      1455      1458      1460      1452      1455      1458      1461
      1453      1452      1455      1456      1453      1452      1455      1457
      1453      1452      1455      1458      1454      1452      1455      1456
      1454      1452      1455      1457      1454      1452      1455      1458
      1455      1458      1461      1462      1455      1458      1461      1463
      1455      1458      1461      1464      1456      1455      1458      1459
      1456      1455      1458      1460      1456      1455      1458      1461
      1457      1455      1458      1459      1457      1455      1458      1460
      1457      1455      1458      1461      1458      1461      1464      1465
      1458      1461      1464      1466      1458      1461      1464      1467
      1459      1458      1461      1462      1459      1458      1461      1463
      1459      1458      1461      1464      1460      1458      1461      1462
      1460      1458      1461      1463      1460      1458      1461      1464
      1461      1464      1467      1468      1461      1464      1467      1469
      1461      1464      1467      1470      1462      1461      1464      1465
      1462      1461      1464      1466      1462      1461      1464      1467
      1463      1461      1464      1465      1463      1461      1464      1466
      1463      1461      1464      1467      1465      1464      1467      1468
      1465      1464      1467      1469      1465      1464      1467      1470
      1466      1464      1467      1468      1466      1464      1467      1469
      1466      1464      1467      1470      1471      1476      1478      1479
      1471      1476      1480      1481      1471      1476      1480      1482
      1471      1476      1480      1487      1472      1471      1474      1475
      1472      1471      1476      1477      1472      1471      1476      1478
      1472      1471      1476      1480      1473      1471      1474      1475
      1473      1471      1476      1477      1473      1471      1476      1478
      1473      1471      1476      1480      1474      1471      1476      1477
      1474      1471      1476      1478      1474      1471      1476      1480
      1475      1474      1471      1476      1476      1480      1487      1483
      1477      1476      1478      1479      1477      1476      1480      1481
      1477      1476      1480      1482      1477      1476      1480      1487
      1478      1476      1480      1481      1478      1476      1480      1482
      1478      1476      1480      1487      1479      1478      1476      1480
      1480      1487      1483      1484      1480      1487      1483      1485
      1480      1487      1483      1486      1481      1480      1487      1483
      1482      1480      1487      1483      1483      1486      1488      1489
      1483      1486      1488      1490      1483      1486      1488      1491
      1484      1483      1486      1488      1485      1483      1486      1488
      1486      1488      1491      1492      1486      1488      1491      1493
      1486      1488      1491      1499      1487      1483      1486      1488
      1488      1491      1493      1494      1488      1491      1499      1500
      1488      1491      1499      1501      1488      1491      1499      1502
      1489      1488      1491      1492      1489      1488      1491      1493
      1489      1488      1491      1499      1490      1488      1491      1492
      1490      1488      1491      1493      1490      1488      1491      1499
      1491      1493      1494      1495      1491      1493      1494      1496
      1491      1499      1502      1503      1492      1491      1493      1494
      1492      1491      1499      1500      1492      1491      1499      1501
      1492      1491      1499      1502      1493      1491      1499      1500
      1493      1491      1499      1501      1493      1491      1499      1502
      1493      1494      1496      1497      1493      1494      1496      1498
      1493      1494      1496      1508      1494      1493      1491      1499
      1494      1496      1508      1509      1494      1496      1508      1510
      1494      1496      1508      1511      1495      1494      1496      1497
      1495      1494      1496      1498      1495      1494      1496      1508
      1496      1508      1511      1512      1496      1508      1511      1513
      1496      1508      1511      1514      1497      1496      1508      1509
      1497      1496      1508      1510      1497      1496      1508      1511
      1498      1496      1508      1509      1498      1496      1508      1510
      1498      1496      1508      1511      1499      1502      1503      1504
      1499      1502      1503      1505      1500      1499      1502      1503
      1501      1499      1502      1503      1502      1503      1505      1506
      1502      1503      1505      1507      1502      1503      1505      1552
      1503      1505      1552      1553      1503      1505      1552      1554
      1503      1505      1552      1555      1504      1503      1505      1506
      1504      1503      1505      1507      1504      1503      1505      1552
      1505      1552      1555      1556      1505      1552      1555      1557
      1505      1552      1555      1558      1506      1505      1552      1553
      1506      1505      1552      1554      1506      1505      1552      1555
      1507      1505      1552      1553      1507      1505      1552      1554
      1507      1505      1552      1555      1508      1511      1514      1515
      1508      1511      1514      1516      1508      1511      1514      1517
      1509      1508      1511      1512      1509      1508      1511      1513
      1509      1508      1511      1514      1510      1508      1511      1512
      1510      1508      1511      1513      1510      1508      1511      1514
      1511      1514      1517      1518      1511      1514      1517      1519
      1511      1514      1517      1520      1512      1511      1514      1515
      1512      1511      1514      1516      1512      1511      1514      1517
      1513      1511      1514      1515      1513      1511      1514      1516
      1513      1511      1514      1517      1514      1517      1520      1521
      1514      1517      1520      1522      1514      1517      1520      1523
      1515      1514      1517      1518      1515      1514      1517      1519
      1515      1514      1517      1520      1516      1514      1517      1518
      1516      1514      1517      1519      1516      1514      1517      1520
      1517      1520      1523      1524      1517      1520      1523      1525
      1517      1520      1523      1526      1518      1517      1520      1521
      1518      1517      1520      1522      1518      1517      1520      1523
      1519      1517      1520      1521      1519      1517      1520      1522
      1519      1517      1520      1523      1520      1523      1526      1527
      1520      1523      1526      1528      1520      1523      1526      1531
      1521      1520      1523      1524      1521      1520      1523      1525
      1521      1520      1523      1526      1522      1520      1523      1524
      1522      1520      1523      1525      1522      1520      1523      1526
      1523      1526      1528      1529      1523      1526      1528      1530
      1523      1526      1528      1531      1523      1526      1531      1528
      1523      1526      1531      1532      1523      1526      1531      1533
      1524      1523      1526      1527      1524      1523      1526      1528
      1524      1523      1526      1531      1525      1523      1526      1527
      1525      1523      1526      1528      1525      1523      1526      1531
      1526      1528      1531      1532      1526      1528      1531      1533
      1526      1531      1528      1529      1526      1531      1528      1530
      1526      1531      1533      1534      1526      1531      1533      1535
      1526      1531      1533      1536      1527      1526      1528      1529
      1527      1526      1528      1530      1527      1526      1528      1531
      1527      1526      1531      1528      1527      1526      1531      1532
      1527      1526      1531      1533      1528      1526      1531      1532
      1528      1526      1531      1533      1528      1531      1533      1534
      1528      1531      1533      1535      1528      1531      1533      1536
      1529      1528      1526      1531      1529      1528      1531      1532
      1529      1528      1531      1533      1530      1528      1526      1531
      1530      1528      1531      1532      1530      1528      1531      1533
      1531      1533      1536      1537      1531      1533      1536      1538
      1531      1533      1536      1539      1532      1531      1533      1534
      1532      1531      1533      1535      1532      1531      1533      1536
      1533      1536      1539      1540      1533      1536      1539      1541
      1533      1536      1539      1542      1534      1533      1536      1537
      1534      1533      1536      1538      1534      1533      1536      1539
      1535      1533      1536      1537      1535      1533      1536      1538
      1535      1533      1536      1539      1536      1539      1542      1543
      1536      1539      1542      1544      1536      1539      1542      1545
      1537      1536      1539      1540      1537      1536      1539      1541
      1537      1536      1539      1542      1538      1536      1539      1540
      1538      1536      1539      1541      1538      1536      1539      1542
      1539      1542      1545      1546      1539      1542      1545      1547
      1539      1542      1545      1548      1540      1539      1542      1543
      1540      1539      1542      1544      1540      1539      1542      1545
      1541      1539      1542      1543      1541      1539      1542      1544
      1541      1539      1542      1545      1542      1545      1548      1549
      1542      1545      1548      1550      1542      1545      1548      1551
      1543      1542      1545      1546      1543      1542      1545      1547
      1543      1542      1545      1548      1544      1542      1545      1546
      1544      1542      1545      1547      1544      1542      1545      1548
      1546      1545      1548      1549      1546      1545      1548      1550
      1546      1545      1548      1551      1547      1545      1548      1549
      1547      1545      1548      1550      1547      1545      1548      1551
      1552      1555      1558      1559      1552      1555      1558      1560
      1552      1555      1558      1561      1553      1552      1555      1556
      1553      1552      1555      1557      1553      1552      1555      1558
      1554      1552      1555      1556      1554      1552      1555      1557
      1554      1552      1555      1558      1555      1558      1561      1562
      1555      1558      1561      1563      1555      1558      1561      1564
      1556      1555      1558      1559      1556      1555      1558      1560
      1556      1555      1558      1561      1557      1555      1558      1559
      1557      1555      1558      1560      1557      1555      1558      1561
      1558      1561      1564      1565      1558      1561      1564      1566
      1558      1561      1564      1567      1559      1558      1561      1562
      1559      1558      1561      1563      1559      1558      1561      1564
      1560      1558      1561      1562      1560      1558      1561      1563
      1560      1558      1561      1564      1561      1564      1567      1568
      1561      1564      1567      1569      1561      1564      1567      1570
      1562      1561      1564      1565      1562      1561      1564      1566
      1562      1561      1564      1567      1563      1561      1564      1565
      1563      1561      1564      1566      1563      1561      1564      1567
      1564      1567      1570      1571      1564      1567      1570      1572
      1564      1567      1570      1573      1565      1564      1567      1568
      1565      1564      1567      1569      1565      1564      1567      1570
      1566      1564      1567      1568      1566      1564      1567      1569
      1566      1564      1567      1570      1567      1570      1573      1574
      1567      1570      1573      1575      1567      1570      1573      1576
      1568      1567      1570      1571      1568      1567      1570      1572
      1568      1567      1570      1573      1569      1567      1570      1571
      1569      1567      1570      1572      1569      1567      1570      1573
      1570      1573      1576      1577      1570      1573      1576      1578
      1570      1573      1576      1579      1571      1570      1573      1574
      1571      1570      1573      1575      1571      1570      1573      1576
      1572      1570      1573      1574      1572      1570      1573      1575
      1572      1570      1573      1576      1573      1576      1579      1580
      1573      1576      1579      1581      1573      1576      1579      1582
      1574      1573      1576      1577      1574      1573      1576      1578
      1574      1573      1576      1579      1575      1573      1576      1577
      1575      1573      1576      1578      1575      1573      1576      1579
      1576      1579      1582      1583      1576      1579      1582      1584
      1576      1579      1582      1585      1577      1576      1579      1580
      1577      1576      1579      1581      1577      1576      1579      1582
      1578      1576      1579      1580      1578      1576      1579      1581
      1578      1576      1579      1582      1579      1582      1585      1586
      1579      1582      1585      1587      1579      1582      1585      1588
      1580      1579      1582      1583      1580      1579      1582      1584
      1580      1579      1582      1585      1581      1579      1582      1583
      1581      1579      1582      1584      1581      1579      1582      1585
      1582      1585      1588      1589      1582      1585      1588      1590
      1582      1585      1588      1591      1583      1582      1585      1586
      1583      1582      1585      1587      1583      1582      1585      1588
      1584      1582      1585      1586      1584      1582      1585      1587
      1584      1582      1585      1588      1585      1588      1591      1592
      1585      1588      1591      1593      1585      1588      1591      1594
      1586      1585      1588      1589      1586      1585      1588      1590
      1586      1585      1588      1591      1587      1585      1588      1589
      1587      1585      1588      1590      1587      1585      1588      1591
      1589      1588      1591      1592      1589      1588      1591      1593
      1589      1588      1591      1594      1590      1588      1591      1592
      1590      1588      1591      1593      1590      1588      1591      1594
      1595      1599      1602      1603      1595      1599      1602      1604
      1595      1599      1602      1609      1596      1595      1599      1600
      1596      1595      1599      1601      1596      1595      1599      1602
      1597      1595      1599      1600      1597      1595      1599      1601
      1597      1595      1599      1602      1598      1595      1599      1600
      1598      1595      1599      1601      1598      1595      1599      1602
      1599      1602      1609      1605      1600      1599      1602      1603
      1600      1599      1602      1604      1600      1599      1602      1609
      1601      1599      1602      1603      1601      1599      1602      1604
      1601      1599      1602      1609      1602      1609      1605      1606
      1602      1609      1605      1607      1602      1609      1605      1608
      1603      1602      1609      1605      1604      1602      1609      1605
      1605      1608      1610      1611      1605      1608      1610      1612
      1605      1608      1610      1613      1606      1605      1608      1610
      1607      1605      1608      1610      1608      1610      1613      1614
      1608      1610      1613      1615      1608      1610      1613      1621
      1609      1605      1608      1610      1610      1613      1615      1616
      1610      1613      1621      1622      1610      1613      1621      1623
      1610      1613      1621      1624      1611      1610      1613      1614
      1611      1610      1613      1615      1611      1610      1613      1621
      1612      1610      1613      1614      1612      1610      1613      1615
      1612      1610      1613      1621      1613      1615      1616      1617
      1613      1615      1616      1618      1613      1621      1624      1625
      1614      1613      1615      1616      1614      1613      1621      1622
      1614      1613      1621      1623      1614      1613      1621      1624
      1615      1613      1621      1622      1615      1613      1621      1623
      1615      1613      1621      1624      1615      1616      1618      1619
      1615      1616      1618      1620      1615      1616      1618      1630
      1616      1615      1613      1621      1616      1618      1630      1631
      1616      1618      1630      1632      1616      1618      1630      1633
      1617      1616      1618      1619      1617      1616      1618      1620
      1617      1616      1618      1630      1618      1630      1633      1634
      1618      1630      1633      1635      1618      1630      1633      1636
      1619      1618      1630      1631      1619      1618      1630      1632
      1619      1618      1630      1633      1620      1618      1630      1631
      1620      1618      1630      1632      1620      1618      1630      1633
      1621      1624      1625      1626      1621      1624      1625      1627
      1622      1621      1624      1625      1623      1621      1624      1625
      1624      1625      1627      1628      1624      1625      1627      1629
      1624      1625      1627      1674      1625      1627      1674      1675
      1625      1627      1674      1676      1625      1627      1674      1677
      1626      1625      1627      1628      1626      1625      1627      1629
      1626      1625      1627      1674      1627      1674      1677      1678
      1627      1674      1677      1679      1627      1674      1677      1680
      1628      1627      1674      1675      1628      1627      1674      1676
      1628      1627      1674      1677      1629      1627      1674      1675
      1629      1627      1674      1676      1629      1627      1674      1677
      1630      1633      1636      1637      1630      1633      1636      1638
      1630      1633      1636      1639      1631      1630      1633      1634
      1631      1630      1633      1635      1631      1630      1633      1636
      1632      1630      1633      1634      1632      1630      1633      1635
      1632      1630      1633      1636      1633      1636      1639      1640
      1633      1636      1639      1641      1633      1636      1639      1642
      1634      1633      1636      1637      1634      1633      1636      1638
      1634      1633      1636      1639      1635      1633      1636      1637
      1635      1633      1636      1638      1635      1633      1636      1639
      1636      1639      1642      1643      1636      1639      1642      1644
      1636      1639      1642      1645      1637      1636      1639      1640
      1637      1636      1639      1641      1637      1636      1639      1642
      1638      1636      1639      1640      1638      1636      1639      1641
      1638      1636      1639      1642      1639      1642      1645      1646
      1639      1642      1645      1647      1639      1642      1645      1648
      1640      1639      1642      1643      1640      1639      1642      1644
      1640      1639      1642      1645      1641      1639      1642      1643
      1641      1639      1642      1644      1641      1639      1642      1645
      1642      1645      1648      1649      1642      1645      1648      1650
      1642      1645      1648      1653      1643      1642      1645      1646
      1643      1642      1645      1647      1643      1642      1645      1648
      1644      1642      1645      1646      1644      1642      1645      1647
      1644      1642      1645      1648      1645      1648      1650      1651
      1645      1648      1650      1652      1645      1648      1650      1653
      1645      1648      1653      1650      1645      1648      1653      1654
      1645      1648      1653      1655      1646      1645      1648      1649
      1646      1645      1648      1650      1646      1645      1648      1653
      1647      1645      1648      1649      1647      1645      1648      1650
      1647      1645      1648      1653      1648      1650      1653      1654
      1648      1650      1653      1655      1648      1653      1650      1651
      1648      1653      1650      1652      1648      1653      1655      1656
      1648      1653      1655      1657      1648      1653      1655      1658
      1649      1648      1650      1651      1649      1648      1650      1652
      1649      1648      1650      1653      1649      1648      1653      1650
      1649      1648      1653      1654      1649      1648      1653      1655
      1650      1648      1653      1654      1650      1648      1653      1655
      1650      1653      1655      1656      1650      1653      1655      1657
      1650      1653      1655      1658      1651      1650      1648      1653
      1651      1650      1653      1654      1651      1650      1653      1655
      1652      1650      1648      1653      1652      1650      1653      1654
      1652      1650      1653      1655      1653      1655      1658      1659
      1653      1655      1658      1660      1653      1655      1658      1661
      1654      1653      1655      1656      1654      1653      1655      1657
      1654      1653      1655      1658      1655      1658      1661      1662
      1655      1658      1661      1663      1655      1658      1661      1664
      1656      1655      1658      1659      1656      1655      1658      1660
      1656      1655      1658      1661      1657      1655      1658      1659
      1657      1655      1658      1660      1657      1655      1658      1661
      1658      1661      1664      1665      1658      1661      1664      1666
      1658      1661      1664      1667      1659      1658      1661      1662
      1659      1658      1661      1663      1659      1658      1661      1664
      1660      1658      1661      1662      1660      1658      1661      1663
      1660      1658      1661      1664      1661      1664      1667      1668
      1661      1664      1667      1669      1661      1664      1667      1670
      1662      1661      1664      1665      1662      1661      1664      1666
      1662      1661      1664      1667      1663      1661      1664      1665
      1663      1661      1664      1666      1663      1661      1664      1667
      1664      1667      1670      1671      1664      1667      1670      1672
      1664      1667      1670      1673      1665      1664      1667      1668
      1665      1664      1667      1669      1665      1664      1667      1670
      1666      1664      1667      1668      1666      1664      1667      1669
      1666      1664      1667      1670      1668      1667      1670      1671
      1668      1667      1670      1672      1668      1667      1670      1673
      1669      1667      1670      1671      1669      1667      1670      1672
      1669      1667      1670      1673      1674      1677      1680      1681
      1674      1677      1680      1682      1674      1677      1680      1683
      1675      1674      1677      1678      1675      1674      1677      1679
      1675      1674      1677      1680      1676      1674      1677      1678
      1676      1674      1677      1679      1676      1674      1677      1680
      1677      1680      1683      1684      1677      1680      1683      1685
      1677      1680      1683      1686      1678      1677      1680      1681
      1678      1677      1680      1682      1678      1677      1680      1683
      1679      1677      1680      1681      1679      1677      1680      1682
      1679      1677      1680      1683      1680      1683      1686      1687
      1680      1683      1686      1688      1680      1683      1686      1689
      1681      1680      1683      1684      1681      1680      1683      1685
      1681      1680      1683      1686      1682      1680      1683      1684
      1682      1680      1683      1685      1682      1680      1683      1686
      1683      1686      1689      1690      1683      1686      1689      1691
      1683      1686      1689      1692      1684      1683      1686      1687
      1684      1683      1686      1688      1684      1683      1686      1689
      1685      1683      1686      1687      1685      1683      1686      1688
      1685      1683      1686      1689      1686      1689      1692      1693
      1686      1689      1692      1694      1686      1689      1692      1695
      1687      1686      1689      1690      1687      1686      1689      1691
      1687      1686      1689      1692      1688      1686      1689      1690
      1688      1686      1689      1691      1688      1686      1689      1692
      1689      1692      1695      1696      1689      1692      1695      1697
      1689      1692      1695      1698      1690      1689      1692      1693
      1690      1689      1692      1694      1690      1689      1692      1695
      1691      1689      1692      1693      1691      1689      1692      1694
      1691      1689      1692      1695      1692      1695      1698      1699
      1692      1695      1698      1700      1692      1695      1698      1701
      1693      1692      1695      1696      1693      1692      1695      1697
      1693      1692      1695      1698      1694      1692      1695      1696
      1694      1692      1695      1697      1694      1692      1695      1698
      1695      1698      1701      1702      1695      1698      1701      1703
      1695      1698      1701      1704      1696      1695      1698      1699
      1696      1695      1698      1700      1696      1695      1698      1701
      1697      1695      1698      1699      1697      1695      1698      1700
      1697      1695      1698      1701      1698      1701      1704      1705
      1698      1701      1704      1706      1698      1701      1704      1707
      1699      1698      1701      1702      1699      1698      1701      1703
      1699      1698      1701      1704      1700      1698      1701      1702
      1700      1698      1701      1703      1700      1698      1701      1704
      1701      1704      1707      1708      1701      1704      1707      1709
      1701      1704      1707      1710      1702      1701      1704      1705
      1702      1701      1704      1706      1702      1701      1704      1707
      1703      1701      1704      1705      1703      1701      1704      1706
      1703      1701      1704      1707      1704      1707      1710      1711
      1704      1707      1710      1712      1704      1707      1710      1713
      1705      1704      1707      1708      1705      1704      1707      1709
      1705      1704      1707      1710      1706      1704      1707      1708
      1706      1704      1707      1709      1706      1704      1707      1710
      1707      1710      1713      1714      1707      1710      1713      1715
      1707      1710      1713      1716      1708      1707      1710      1711
      1708      1707      1710      1712      1708      1707      1710      1713
      1709      1707      1710      1711      1709      1707      1710      1712
      1709      1707      1710      1713      1711      1710      1713      1714
      1711      1710      1713      1715      1711      1710      1713      1716
      1712      1710      1713      1714      1712      1710      1713      1715
      1712      1710      1713      1716      1717      1721      1724      1725
      1717      1721      1724      1726      1717      1721      1724      1731
      1718      1717      1721      1722      1718      1717      1721      1723
      1718      1717      1721      1724      1719      1717      1721      1722
      1719      1717      1721      1723      1719      1717      1721      1724
      1720      1717      1721      1722      1720      1717      1721      1723
      1720      1717      1721      1724      1721      1724      1731      1727
      1722      1721      1724      1725      1722      1721      1724      1726
      1722      1721      1724      1731      1723      1721      1724      1725
      1723      1721      1724      1726      1723      1721      1724      1731
      1724      1731      1727      1728      1724      1731      1727      1729
      1724      1731      1727      1730      1725      1724      1731      1727
      1726      1724      1731      1727      1727      1730      1732      1733
      1727      1730      1732      1734      1727      1730      1732      1735
      1728      1727      1730      1732      1729      1727      1730      1732
      1730      1732      1735      1736      1730      1732      1735      1737
      1730      1732      1735      1743      1731      1727      1730      1732
      1732      1735      1737      1738      1732      1735      1743      1744
      1732      1735      1743      1745      1732      1735      1743      1746
      1733      1732      1735      1736      1733      1732      1735      1737
      1733      1732      1735      1743      1734      1732      1735      1736
      1734      1732      1735      1737      1734      1732      1735      1743
      1735      1737      1738      1739      1735      1737      1738      1740
      1735      1743      1746      1747      1736      1735      1737      1738
      1736      1735      1743      1744      1736      1735      1743      1745
      1736      1735      1743      1746      1737      1735      1743      1744
      1737      1735      1743      1745      1737      1735      1743      1746
      1737      1738      1740      1741      1737      1738      1740      1742
      1737      1738      1740      1752      1738      1737      1735      1743
      1738      1740      1752      1753      1738      1740      1752      1754
      1738      1740      1752      1755      1739      1738      1740      1741
      1739      1738      1740      1742      1739      1738      1740      1752
      1740      1752      1755      1756      1740      1752      1755      1757
      1740      1752      1755      1758      1741      1740      1752      1753
      1741      1740      1752      1754      1741      1740      1752      1755
      1742      1740      1752      1753      1742      1740      1752      1754
      1742      1740      1752      1755      1743      1746      1747      1748
      1743      1746      1747      1749      1744      1743      1746      1747
      1745      1743      1746      1747      1746      1747      1749      1750
      1746      1747      1749      1751      1746      1747      1749      1796
      1747      1749      1796      1797      1747      1749      1796      1798
      1747      1749      1796      1799      1748      1747      1749      1750
      1748      1747      1749      1751      1748      1747      1749      1796
      1749      1796      1799      1800      1749      1796      1799      1801
      1749      1796      1799      1802      1750      1749      1796      1797
      1750      1749      1796      1798      1750      1749      1796      1799
      1751      1749      1796      1797      1751      1749      1796      1798
      1751      1749      1796      1799      1752      1755      1758      1759
      1752      1755      1758      1760      1752      1755      1758      1761
      1753      1752      1755      1756      1753      1752      1755      1757
      1753      1752      1755      1758      1754      1752      1755      1756
      1754      1752      1755      1757      1754      1752      1755      1758
      1755      1758      1761      1762      1755      1758      1761      1763
      1755      1758      1761      1764      1756      1755      1758      1759
      1756      1755      1758      1760      1756      1755      1758      1761
      1757      1755      1758      1759      1757      1755      1758      1760
      1757      1755      1758      1761      1758      1761      1764      1765
      1758      1761      1764      1766      1758      1761      1764      1767
      1759      1758      1761      1762      1759      1758      1761      1763
      1759      1758      1761      1764      1760      1758      1761      1762
      1760      1758      1761      1763      1760      1758      1761      1764
      1761      1764      1767      1768      1761      1764      1767      1769
      1761      1764      1767      1770      1762      1761      1764      1765
      1762      1761      1764      1766      1762      1761      1764      1767
      1763      1761      1764      1765      1763      1761      1764      1766
      1763      1761      1764      1767      1764      1767      1770      1771
      1764      1767      1770      1772      1764      1767      1770      1775
      1765      1764      1767      1768      1765      1764      1767      1769
      1765      1764      1767      1770      1766      1764      1767      1768
      1766      1764      1767      1769      1766      1764      1767      1770
      1767      1770      1772      1773      1767      1770      1772      1774
      1767      1770      1772      1775      1767      1770      1775      1772
      1767      1770      1775      1776      1767      1770      1775      1777
      1768      1767      1770      1771      1768      1767      1770      1772
      1768      1767      1770      1775      1769      1767      1770      1771
      1769      1767      1770      1772      1769      1767      1770      1775
      1770      1772      1775      1776      1770      1772      1775      1777
      1770      1775      1772      1773      1770      1775      1772      1774
      1770      1775      1777      1778      1770      1775      1777      1779
      1770      1775      1777      1780      1771      1770      1772      1773
      1771      1770      1772      1774      1771      1770      1772      1775
      1771      1770      1775      1772      1771      1770      1775      1776
      1771      1770      1775      1777      1772      1770      1775      1776
      1772      1770      1775      1777      1772      1775      1777      1778
      1772      1775      1777      1779      1772      1775      1777      1780
      1773      1772      1770      1775      1773      1772      1775      1776
      1773      1772      1775      1777      1774      1772      1770      1775
      1774      1772      1775      1776      1774      1772      1775      1777
      1775      1777      1780      1781      1775      1777      1780      1782
      1775      1777      1780      1783      1776      1775      1777      1778
      1776      1775      1777      1779      1776      1775      1777      1780
      1777      1780      1783      1784      1777      1780      1783      1785
      1777      1780      1783      1786      1778      1777      1780      1781
      1778      1777      1780      1782      1778      1777      1780      1783
      1779      1777      1780      1781      1779      1777      1780      1782
      1779      1777      1780      1783      1780      1783      1786      1787
      1780      1783      1786      1788      1780      1783      1786      1789
      1781      1780      1783      1784      1781      1780      1783      1785
      1781      1780      1783      1786      1782      1780      1783      1784
      1782      1780      1783      1785      1782      1780      1783      1786
      1783      1786      1789      1790      1783      1786      1789      1791
      1783      1786      1789      1792      1784      1783      1786      1787
      1784      1783      1786      1788      1784      1783      1786      1789
      1785      1783      1786      1787      1785      1783      1786      1788
      1785      1783      1786      1789      1786      1789      1792      1793
      1786      1789      1792      1794      1786      1789      1792      1795
      1787      1786      1789      1790      1787      1786      1789      1791
      1787      1786      1789      1792      1788      1786      1789      1790
      1788      1786      1789      1791      1788      1786      1789      1792
      1790      1789      1792      1793      1790      1789      1792      1794
      1790      1789      1792      1795      1791      1789      1792      1793
      1791      1789      1792      1794      1791      1789      1792      1795
      1796      1799      1802      1803      1796      1799      1802      1804
      1796      1799      1802      1805      1797      1796      1799      1800
      1797      1796      1799      1801      1797      1796      1799      1802
      1798      1796      1799      1800      1798      1796      1799      1801
      1798      1796      1799      1802      1799      1802      1805      1806
      1799      1802      1805      1807      1799      1802      1805      1808
      1800      1799      1802      1803      1800      1799      1802      1804
      1800      1799      1802      1805      1801      1799      1802      1803
      1801      1799      1802      1804      1801      1799      1802      1805
      1802      1805      1808      1809      1802      1805      1808      1810
      1802      1805      1808      1811      1803      1802      1805      1806
      1803      1802      1805      1807      1803      1802      1805      1808
      1804      1802      1805      1806      1804      1802      1805      1807
      1804      1802      1805      1808      1805      1808      1811      1812
      1805      1808      1811      1813      1805      1808      1811      1814
      1806      1805      1808      1809      1806      1805      1808      1810
      1806      1805      1808      1811      1807      1805      1808      1809
      1807      1805      1808      1810      1807      1805      1808      1811
      1808      1811      1814      1815      1808      1811      1814      1816
      1808      1811      1814      1817      1809      1808      1811      1812
      1809      1808      1811      1813      1809      1808      1811      1814
      1810      1808      1811      1812      1810      1808      1811      1813
      1810      1808      1811      1814      1811      1814      1817      1818
      1811      1814      1817      1819      1811      1814      1817      1820
      1812      1811      1814      1815      1812      1811      1814      1816
      1812      1811      1814      1817      1813      1811      1814      1815
      1813      1811      1814      1816      1813      1811      1814      1817
      1814      1817      1820      1821      1814      1817      1820      1822
      1814      1817      1820      1823      1815      1814      1817      1818
      1815      1814      1817      1819      1815      1814      1817      1820
      1816      1814      1817      1818      1816      1814      1817      1819
      1816      1814      1817      1820      1817      1820      1823      1824
      1817      1820      1823      1825      1817      1820      1823      1826
      1818      1817      1820      1821      1818      1817      1820      1822
      1818      1817      1820      1823      1819      1817      1820      1821
      1819      1817      1820      1822      1819      1817      1820      1823
      1820      1823      1826      1827      1820      1823      1826      1828
      1820      1823      1826      1829      1821      1820      1823      1824
      1821      1820      1823      1825      1821      1820      1823      1826
      1822      1820      1823      1824      1822      1820      1823      1825
      1822      1820      1823      1826      1823      1826      1829      1830
      1823      1826      1829      1831      1823      1826      1829      1832
      1824      1823      1826      1827      1824      1823      1826      1828
      1824      1823      1826      1829      1825      1823      1826      1827
      1825      1823      1826      1828      1825      1823      1826      1829
      1826      1829      1832      1833      1826      1829      1832      1834
      1826      1829      1832      1835      1827      1826      1829      1830
      1827      1826      1829      1831      1827      1826      1829      1832
      1828      1826      1829      1830      1828      1826      1829      1831
      1828      1826      1829      1832      1829      1832      1835      1836
      1829      1832      1835      1837      1829      1832      1835      1838
      1830      1829      1832      1833      1830      1829      1832      1834
      1830      1829      1832      1835      1831      1829      1832      1833
      1831      1829      1832      1834      1831      1829      1832      1835
      1833      1832      1835      1836      1833      1832      1835      1837
      1833      1832      1835      1838      1834      1832      1835      1836
      1834      1832      1835      1837      1834      1832      1835      1838
      1839      1843      1846      1847      1839      1843      1846      1848
      1839      1843      1846      1853      1840      1839      1843      1844
      1840      1839      1843      1845      1840      1839      1843      1846
      1841      1839      1843      1844      1841      1839      1843      1845
      1841      1839      1843      1846      1842      1839      1843      1844
      1842      1839      1843      1845      1842      1839      1843      1846
      1843      1846      1853      1849      1844      1843      1846      1847
      1844      1843      1846      1848      1844      1843      1846      1853
      1845      1843      1846      1847      1845      1843      1846      1848
      1845      1843      1846      1853      1846      1853      1849      1850
      1846      1853      1849      1851      1846      1853      1849      1852
      1847      1846      1853      1849      1848      1846      1853      1849
      1849      1852      1854      1855      1849      1852      1854      1856
      1849      1852      1854      1857      1850      1849      1852      1854
      1851      1849      1852      1854      1852      1854      1857      1858
      1852      1854      1857      1859      1852      1854      1857      1865
      1853      1849      1852      1854      1854      1857      1859      1860
      1854      1857      1865      1866      1854      1857      1865      1867
      1854      1857      1865      1868      1855      1854      1857      1858
      1855      1854      1857      1859      1855      1854      1857      1865
      1856      1854      1857      1858      1856      1854      1857      1859
      1856      1854      1857      1865      1857      1859      1860      1861
      1857      1859      1860      1862      1857      1865      1868      1869
      1858      1857      1859      1860      1858      1857      1865      1866
      1858      1857      1865      1867      1858      1857      1865      1868
      1859      1857      1865      1866      1859      1857      1865      1867
      1859      1857      1865      1868      1859      1860      1862      1863
      1859      1860      1862      1864      1859      1860      1862      1874
      1860      1859      1857      1865      1860      1862      1874      1875
      1860      1862      1874      1876      1860      1862      1874      1877
      1861      1860      1862      1863      1861      1860      1862      1864
      1861      1860      1862      1874      1862      1874      1877      1878
      1862      1874      1877      1879      1862      1874      1877      1880
      1863      1862      1874      1875      1863      1862      1874      1876
      1863      1862      1874      1877      1864      1862      1874      1875
      1864      1862      1874      1876      1864      1862      1874      1877
      1865      1868      1869      1870      1865      1868      1869      1871
      1866      1865      1868      1869      1867      1865      1868      1869
      1868      1869      1871      1872      1868      1869      1871      1873
      1868      1869      1871      1918      1869      1871      1918      1919
      1869      1871      1918      1920      1869      1871      1918      1921
      1870      1869      1871      1872      1870      1869      1871      1873
      1870      1869      1871      1918      1871      1918      1921      1922
      1871      1918      1921      1923      1871      1918      1921      1924
      1872      1871      1918      1919      1872      1871      1918      1920
      1872      1871      1918      1921      1873      1871      1918      1919
      1873      1871      1918      1920      1873      1871      1918      1921
      1874      1877      1880      1881      1874      1877      1880      1882
      1874      1877      1880      1883      1875      1874      1877      1878
      1875      1874      1877      1879      1875      1874      1877      1880
      1876      1874      1877      1878      1876      1874      1877      1879
      1876      1874      1877      1880      1877      1880      1883      1884
      1877      1880      1883      1885      1877      1880      1883      1886
      1878      1877      1880      1881      1878      1877      1880      1882
      1878      1877      1880      1883      1879      1877      1880      1881
      1879      1877      1880      1882      1879      1877      1880      1883
      1880      1883      1886      1887      1880      1883      1886      1888
      1880      1883      1886      1889      1881      1880      1883      1884
      1881      1880      1883      1885      1881      1880      1883      1886
      1882      1880      1883      1884      1882      1880      1883      1885
      1882      1880      1883      1886      1883      1886      1889      1890
      1883      1886      1889      1891      1883      1886      1889      1892
      1884      1883      1886      1887      1884      1883      1886      1888
      1884      1883      1886      1889      1885      1883      1886      1887
      1885      1883      1886      1888      1885      1883      1886      1889
      1886      1889      1892      1893      1886      1889      1892      1894
      1886      1889      1892      1897      1887      1886      1889      1890
      1887      1886      1889      1891      1887      1886      1889      1892
      1888      1886      1889      1890      1888      1886      1889      1891
      1888      1886      1889      1892      1889      1892      1894      1895
      1889      1892      1894      1896      1889      1892      1894      1897
      1889      1892      1897      1894      1889      1892      1897      1898
      1889      1892      1897      1899      1890      1889      1892      1893
      1890      1889      1892      1894      1890      1889      1892      1897
      1891      1889      1892      1893      1891      1889      1892      1894
      1891      1889      1892      1897      1892      1894      1897      1898
      1892      1894      1897      1899      1892      1897      1894      1895
      1892      1897      1894      1896      1892      1897      1899      1900
      1892      1897      1899      1901      1892      1897      1899      1902
      1893      1892      1894      1895      1893      1892      1894      1896
      1893      1892      1894      1897      1893      1892      1897      1894
      1893      1892      1897      1898      1893      1892      1897      1899
      1894      1892      1897      1898      1894      1892      1897      1899
      1894      1897      1899      1900      1894      1897      1899      1901
      1894      1897      1899      1902      1895      1894      1892      1897
      1895      1894      1897      1898      1895      1894      1897      1899
      1896      1894      1892      1897      1896      1894      1897      1898
      1896      1894      1897      1899      1897      1899      1902      1903
      1897      1899      1902      1904      1897      1899      1902      1905
      1898      1897      1899      1900      1898      1897      1899      1901
      1898      1897      1899      1902      1899      1902      1905      1906
      1899      1902      1905      1907      1899      1902      1905      1908
      1900      1899      1902      1903      1900      1899      1902      1904
      1900      1899      1902      1905      1901      1899      1902      1903
      1901      1899      1902      1904      1901      1899      1902      1905
      1902      1905      1908      1909      1902      1905      1908      1910
      1902      1905      1908      1911      1903      1902      1905      1906
      1903      1902      1905      1907      1903      1902      1905      1908
      1904      1902      1905      1906      1904      1902      1905      1907
      1904      1902      1905      1908      1905      1908      1911      1912
      1905      1908      1911      1913      1905      1908      1911      1914
      1906      1905      1908      1909      1906      1905      1908      1910
      1906      1905      1908      1911      1907      1905      1908      1909
      1907      1905      1908      1910      1907      1905      1908      1911
      1908      1911      1914      1915      1908      1911      1914      1916
      1908      1911      1914      1917      1909      1908      1911      1912
      1909      1908      1911      1913      1909      1908      1911      1914
      1910      1908      1911      1912      1910      1908      1911      1913
      1910      1908      1911      1914      1912      1911      1914      1915
      1912      1911      1914      1916      1912      1911      1914      1917
      1913      1911      1914      1915      1913      1911      1914      1916
      1913      1911      1914      1917      1918      1921      1924      1925
      1918      1921      1924      1926      1918      1921      1924      1927
      1919      1918      1921      1922      1919      1918      1921      1923
      1919      1918      1921      1924      1920      1918      1921      1922
      1920      1918      1921      1923      1920      1918      1921      1924
      1921      1924      1927      1928      1921      1924      1927      1929
      1921      1924      1927      1930      1922      1921      1924      1925
      1922      1921      1924      1926      1922      1921      1924      1927
      1923      1921      1924      1925      1923      1921      1924      1926
      1923      1921      1924      1927      1924      1927      1930      1931
      1924      1927      1930      1932      1924      1927      1930      1933
      1925      1924      1927      1928      1925      1924      1927      1929
      1925      1924      1927      1930      1926      1924      1927      1928
      1926      1924      1927      1929      1926      1924      1927      1930
      1927      1930      1933      1934      1927      1930      1933      1935
      1927      1930      1933      1936      1928      1927      1930      1931
      1928      1927      1930      1932      1928      1927      1930      1933
      1929      1927      1930      1931      1929      1927      1930      1932
      1929      1927      1930      1933      1930      1933      1936      1937
      1930      1933      1936      1938      1930      1933      1936      1939
      1931      1930      1933      1934      1931      1930      1933      1935
      1931      1930      1933      1936      1932      1930      1933      1934
      1932      1930      1933      1935      1932      1930      1933      1936
      1933      1936      1939      1940      1933      1936      1939      1941
      1933      1936      1939      1942      1934      1933      1936      1937
      1934      1933      1936      1938      1934      1933      1936      1939
      1935      1933      1936      1937      1935      1933      1936      1938
      1935      1933      1936      1939      1936      1939      1942      1943
      1936      1939      1942      1944      1936      1939      1942      1945
      1937      1936      1939      1940      1937      1936      1939      1941
      1937      1936      1939      1942      1938      1936      1939      1940
      1938      1936      1939      1941      1938      1936      1939      1942
      1939      1942      1945      1946      1939      1942      1945      1947
      1939      1942      1945      1948      1940      1939      1942      1943
      1940      1939      1942      1944      1940      1939      1942      1945
      1941      1939      1942      1943      1941      1939      1942      1944
      1941      1939      1942      1945      1942      1945      1948      1949
      1942      1945      1948      1950      1942      1945      1948      1951
      1943      1942      1945      1946      1943      1942      1945      1947
      1943      1942      1945      1948      1944      1942      1945      1946
      1944      1942      1945      1947      1944      1942      1945      1948
      1945      1948      1951      1952      1945      1948      1951      1953
      1945      1948      1951      1954      1946      1945      1948      1949
      1946      1945      1948      1950      1946      1945      1948      1951
      1947      1945      1948      1949      1947      1945      1948      1950
      1947      1945      1948      1951      1948      1951      1954      1955
      1948      1951      1954      1956      1948      1951      1954      1957
      1949      1948      1951      1952      1949      1948      1951      1953
      1949      1948      1951      1954      1950      1948      1951      1952
      1950      1948      1951      1953      1950      1948      1951      1954
      1951      1954      1957      1958      1951      1954      1957      1959
      1951      1954      1957      1960      1952      1951      1954      1955
      1952      1951      1954      1956      1952      1951      1954      1957
      1953      1951      1954      1955      1953      1951      1954      1956
      1953      1951      1954      1957      1955      1954      1957      1958
      1955      1954      1957      1959      1955      1954      1957      1960
      1956      1954      1957      1958      1956      1954      1957      1959
      1956      1954      1957      1960      1961      1965      1968      1969
      1961      1965      1968      1970      1961      1965      1968      1975
      1962      1961      1965      1966      1962      1961      1965      1967
      1962      1961      1965      1968      1963      1961      1965      1966
      1963      1961      1965      1967      1963      1961      1965      1968
      1964      1961      1965      1966      1964      1961      1965      1967
      1964      1961      1965      1968      1965      1968      1975      1971
      1966      1965      1968      1969      1966      1965      1968      1970
      1966      1965      1968      1975      1967      1965      1968      1969
      1967      1965      1968      1970      1967      1965      1968      1975
      1968      1975      1971      1972      1968      1975      1971      1973
      1968      1975      1971      1974      1969      1968      1975      1971
      1970      1968      1975      1971      1971      1974      1976      1977
      1971      1974      1976      1978      1971      1974      1976      1979
      1972      1971      1974      1976      1973      1971      1974      1976
      1974      1976      1979      1980      1974      1976      1979      1981
      1974      1976      1979      1987      1975      1971      1974      1976
      1976      1979      1981      1982      1976      1979      1987      1988
      1976      1979      1987      1989      1976      1979      1987      1990
      1977      1976      1979      1980      1977      1976      1979      1981
      1977      1976      1979      1987      1978      1976      1979      1980
      1978      1976      1979      1981      1978      1976      1979      1987
      1979      1981      1982      1983      1979      1981      1982      1984
      1979      1987      1990      1991      1980      1979      1981      1982
      1980      1979      1987      1988      1980      1979      1987      1989
      1980      1979      1987      1990      1981      1979      1987      1988
      1981      1979      1987      1989      1981      1979      1987      1990
      1981      1982      1984      1985      1981      1982      1984      1986
      1981      1982      1984      1996      1982      1981      1979      1987
      1982      1984      1996      1997      1982      1984      1996      1998
      1982      1984      1996      1999      1983      1982      1984      1985
      1983      1982      1984      1986      1983      1982      1984      1996
      1984      1996      1999      2000      1984      1996      1999      2001
      1984      1996      1999      2002      1985      1984      1996      1997
      1985      1984      1996      1998      1985      1984      1996      1999
      1986      1984      1996      1997      1986      1984      1996      1998
      1986      1984      1996      1999      1987      1990      1991      1992
      1987      1990      1991      1993      1988      1987      1990      1991
      1989      1987      1990      1991      1990      1991      1993      1994
      1990      1991      1993      1995      1990      1991      1993      2040
      1991      1993      2040      2041      1991      1993      2040      2042
      1991      1993      2040      2043      1992      1991      1993      1994
      1992      1991      1993      1995      1992      1991      1993      2040
      1993      2040      2043      2044      1993      2040      2043      2045
      1993      2040      2043      2046      1994      1993      2040      2041
      1994      1993      2040      2042      1994      1993      2040      2043
      1995      1993      2040      2041      1995      1993      2040      2042
      1995      1993      2040      2043      1996      1999      2002      2003
      1996      1999      2002      2004      1996      1999      2002      2005
      1997      1996      1999      2000      1997      1996      1999      2001
      1997      1996      1999      2002      1998      1996      1999      2000
      1998      1996      1999      2001      1998      1996      1999      2002
      1999      2002      2005      2006      1999      2002      2005      2007
      1999      2002      2005      2008      2000      1999      2002      2003
      2000      1999      2002      2004      2000      1999      2002      2005
      2001      1999      2002      2003      2001      1999      2002      2004
      2001      1999      2002      2005      2002      2005      2008      2009
      2002      2005      2008      2010      2002      2005      2008      2011
      2003      2002      2005      2006      2003      2002      2005      2007
      2003      2002      2005      2008      2004      2002      2005      2006
      2004      2002      2005      2007      2004      2002      2005      2008
      2005      2008      2011      2012      2005      2008      2011      2013
      2005      2008      2011      2014      2006      2005      2008      2009
      2006      2005      2008      2010      2006      2005      2008      2011
      2007      2005      2008      2009      2007      2005      2008      2010
      2007      2005      2008      2011      2008      2011      2014      2015
      2008      2011      2014      2016      2008      2011      2014      2019
      2009      2008      2011      2012      2009      2008      2011      2013
      2009      2008      2011      2014      2010      2008      2011      2012
      2010      2008      2011      2013      2010      2008      2011      2014
      2011      2014      2016      2017      2011      2014      2016      2018
      2011      2014      2016      2019      2011      2014      2019      2016
      2011      2014      2019      2020      2011      2014      2019      2021
      2012      2011      2014      2015      2012      2011      2014      2016
      2012      2011      2014      2019      2013      2011      2014      2015
      2013      2011      2014      2016      2013      2011      2014      2019
      2014      2016      2019      2020      2014      2016      2019      2021
      2014      2019      2016      2017      2014      2019      2016      2018
      2014      2019      2021      2022      2014      2019      2021      2023
      2014      2019      2021      2024      2015      2014      2016      2017
      2015      2014      2016      2018      2015      2014      2016      2019
      2015      2014      2019      2016      2015      2014      2019      2020
      2015      2014      2019      2021      2016      2014      2019      2020
      2016      2014      2019      2021      2016      2019      2021      2022
      2016      2019      2021      2023      2016      2019      2021      2024
      2017      2016      2014      2019      2017      2016      2019      2020
      2017      2016      2019      2021      2018      2016      2014      2019
      2018      2016      2019      2020      2018      2016      2019      2021
      2019      2021      2024      2025      2019      2021      2024      2026
      2019      2021      2024      2027      2020      2019      2021      2022
      2020      2019      2021      2023      2020      2019      2021      2024
      2021      2024      2027      2028      2021      2024      2027      2029
      2021      2024      2027      2030      2022      2021      2024      2025
      2022      2021      2024      2026      2022      2021      2024      2027
      2023      2021      2024      2025      2023      2021      2024      2026
      2023      2021      2024      2027      2024      2027      2030      2031
      2024      2027      2030      2032      2024      2027      2030      2033
      2025      2024      2027      2028      2025      2024      2027      2029
      2025      2024      2027      2030      2026      2024      2027      2028
      2026      2024      2027      2029      2026      2024      2027      2030
      2027      2030      2033      2034      2027      2030      2033      2035
      2027      2030      2033      2036      2028      2027      2030      2031
      2028      2027      2030      2032      2028      2027      2030      2033
      2029      2027      2030      2031      2029      2027      2030      2032
      2029      2027      2030      2033      2030      2033      2036      2037
      2030      2033      2036      2038      2030      2033      2036      2039
      2031      2030      2033      2034      2031      2030      2033      2035
      2031      2030      2033      2036      2032      2030      2033      2034
      2032      2030      2033      2035      2032      2030      2033      2036
      2034      2033      2036      2037      2034      2033      2036      2038
      2034      2033      2036      2039      2035      2033      2036      2037
      2035      2033      2036      2038      2035      2033      2036      2039
      2040      2043      2046      2047      2040      2043      2046      2048
      2040      2043      2046      2049      2041      2040      2043      2044
      2041      2040      2043      2045      2041      2040      2043      2046
      2042      2040      2043      2044      2042      2040      2043      2045
      2042      2040      2043      2046      2043      2046      2049      2050
      2043      2046      2049      2051      2043      2046      2049      2052
      2044      2043      2046      2047      2044      2043      2046      2048
      2044      2043      2046      2049      2045      2043      2046      2047
      2045      2043      2046      2048      2045      2043      2046      2049
      2046      2049      2052      2053      2046      2049      2052      2054
      2046      2049      2052      2055      2047      2046      2049      2050
      2047      2046      2049      2051      2047      2046      2049      2052
      2048      2046      2049      2050      2048      2046      2049      2051
      2048      2046      2049      2052      2049      2052      2055      2056
      2049      2052      2055      2057      2049      2052      2055      2058
      2050      2049      2052      2053      2050      2049      2052      2054
      2050      2049      2052      2055      2051      2049      2052      2053
      2051      2049      2052      2054      2051      2049      2052      2055
      2052      2055      2058      2059      2052      2055      2058      2060
      2052      2055      2058      2061      2053      2052      2055      2056
      2053      2052      2055      2057      2053      2052      2055      2058
      2054      2052      2055      2056      2054      2052      2055      2057
      2054      2052      2055      2058      2055      2058      2061      2062
      2055      2058      2061      2063      2055      2058      2061      2064
      2056      2055      2058      2059      2056      2055      2058      2060
      2056      2055      2058      2061      2057      2055      2058      2059
      2057      2055      2058      2060      2057      2055      2058      2061
      2058      2061      2064      2065      2058      2061      2064      2066
      2058      2061      2064      2067      2059      2058      2061      2062
      2059      2058      2061      2063      2059      2058      2061      2064
      2060      2058      2061      2062      2060      2058      2061      2063
      2060      2058      2061      2064      2061      2064      2067      2068
      2061      2064      2067      2069      2061      2064      2067      2070
      2062      2061      2064      2065      2062      2061      2064      2066
      2062      2061      2064      2067      2063      2061      2064      2065
      2063      2061      2064      2066      2063      2061      2064      2067
      2064      2067      2070      2071      2064      2067      2070      2072
      2064      2067      2070      2073      2065      2064      2067      2068
      2065      2064      2067      2069      2065      2064      2067      2070
      2066      2064      2067      2068      2066      2064      2067      2069
      2066      2064      2067      2070      2067      2070      2073      2074
      2067      2070      2073      2075      2067      2070      2073      2076
      2068      2067      2070      2071      2068      2067      2070      2072
      2068      2067      2070      2073      2069      2067      2070      2071
      2069      2067      2070      2072      2069      2067      2070      2073
      2070      2073      2076      2077      2070      2073      2076      2078
      2070      2073      2076      2079      2071      2070      2073      2074
      2071      2070      2073      2075      2071      2070      2073      2076
      2072      2070      2073      2074      2072      2070      2073      2075
      2072      2070      2073      2076      2073      2076      2079      2080
      2073      2076      2079      2081      2073      2076      2079      2082
      2074      2073      2076      2077      2074      2073      2076      2078
      2074      2073      2076      2079      2075      2073      2076      2077
      2075      2073      2076      2078      2075      2073      2076      2079
      2077      2076      2079      2080      2077      2076      2079      2081
      2077      2076      2079      2082      2078      2076      2079      2080
      2078      2076      2079      2081      2078      2076      2079      2082
      2083      2088      2090      2091      2083      2088      2092      2093
      2083      2088      2092      2094      2083      2088      2092      2099
      2084      2083      2086      2087      2084      2083      2088      2089
      2084      2083      2088      2090      2084      2083      2088      2092
      2085      2083      2086      2087      2085      2083      2088      2089
      2085      2083      2088      2090      2085      2083      2088      2092
      2086      2083      2088      2089      2086      2083      2088      2090
      2086      2083      2088      2092      2087      2086      2083      2088
      2088      2092      2099      2095      2089      2088      2090      2091
      2089      2088      2092      2093      2089      2088      2092      2094
      2089      2088      2092      2099      2090      2088      2092      2093
      2090      2088      2092      2094      2090      2088      2092      2099
      2091      2090      2088      2092      2092      2099      2095      2096
      2092      2099      2095      2097      2092      2099      2095      2098
      2093      2092      2099      2095      2094      2092      2099      2095
      2095      2098      2100      2101      2095      2098      2100      2102
      2095      2098      2100      2103      2096      2095      2098      2100
      2097      2095      2098      2100      2098      2100      2103      2104
      2098      2100      2103      2105      2098      2100      2103      2111
      2099      2095      2098      2100      2100      2103      2105      2106
      2100      2103      2111      2112      2100      2103      2111      2113
      2100      2103      2111      2114      2101      2100      2103      2104
      2101      2100      2103      2105      2101      2100      2103      2111
      2102      2100      2103      2104      2102      2100      2103      2105
      2102      2100      2103      2111      2103      2105      2106      2107
      2103      2105      2106      2108      2103      2111      2114      2115
      2104      2103      2105      2106      2104      2103      2111      2112
      2104      2103      2111      2113      2104      2103      2111      2114
      2105      2103      2111      2112      2105      2103      2111      2113
      2105      2103      2111      2114      2105      2106      2108      2109
      2105      2106      2108      2110      2105      2106      2108      2120
      2106      2105      2103      2111      2106      2108      2120      2121
      2106      2108      2120      2122      2106      2108      2120      2123
      2107      2106      2108      2109      2107      2106      2108      2110
      2107      2106      2108      2120      2108      2120      2123      2124
      2108      2120      2123      2125      2108      2120      2123      2126
      2109      2108      2120      2121      2109      2108      2120      2122
      2109      2108      2120      2123      2110      2108      2120      2121
      2110      2108      2120      2122      2110      2108      2120      2123
      2111      2114      2115      2116      2111      2114      2115      2117
      2112      2111      2114      2115      2113      2111      2114      2115
      2114      2115      2117      2118      2114      2115      2117      2119
      2114      2115      2117      2161      2115      2117      2161      2162
      2115      2117      2161      2163      2115      2117      2161      2164
      2116      2115      2117      2118      2116      2115      2117      2119
      2116      2115      2117      2161      2117      2161      2164      2165
      2117      2161      2164      2166      2117      2161      2164      2167
      2118      2117      2161      2162      2118      2117      2161      2163
      2118      2117      2161      2164      2119      2117      2161      2162
      2119      2117      2161      2163      2119      2117      2161      2164
      2120      2123      2126      2127      2120      2123      2126      2128
      2120      2123      2126      2129      2121      2120      2123      2124
      2121      2120      2123      2125      2121      2120      2123      2126
      2122      2120      2123      2124      2122      2120      2123      2125
      2122      2120      2123      2126      2123      2126      2129      2130
      2123      2126      2129      2131      2123      2126      2129      2132
      2124      2123      2126      2127      2124      2123      2126      2128
      2124      2123      2126      2129      2125      2123      2126      2127
      2125      2123      2126      2128      2125      2123      2126      2129
      2126      2129      2132      2133      2126      2129      2132      2134
      2126      2129      2132      2135      2127      2126      2129      2130
      2127      2126      2129      2131      2127      2126      2129      2132
      2128      2126      2129      2130      2128      2126      2129      2131
      2128      2126      2129      2132      2129      2132      2135      2136
      2129      2132      2135      2137      2129      2132      2135      2138
      2130      2129      2132      2133      2130      2129      2132      2134
      2130      2129      2132      2135      2131      2129      2132      2133
      2131      2129      2132      2134      2131      2129      2132      2135
      2132      2135      2138      2139      2132      2135      2138      2140
      2133      2132      2135      2136      2133      2132      2135      2137
      2133      2132      2135      2138      2134      2132      2135      2136
      2134      2132      2135      2137      2134      2132      2135      2138
      2135      2138      2140      2141      2135      2138      2140      2142
      2136      2135      2138      2139      2136      2135      2138      2140
      2137      2135      2138      2139      2137      2135      2138      2140
      2138      2140      2142      2143      2138      2140      2142      2144
      2138      2140      2142      2145      2139      2138      2140      2141
      2139      2138      2140      2142      2140      2142      2145      2146
      2140      2142      2145      2147      2140      2142      2145      2148
      2141      2140      2142      2143      2141      2140      2142      2144
      2141      2140      2142      2145      2142      2145      2148      2149
      2142      2145      2148      2150      2142      2145      2148      2151
      2143      2142      2145      2146      2143      2142      2145      2147
      2143      2142      2145      2148      2144      2142      2145      2146
      2144      2142      2145      2147      2144      2142      2145      2148
      2145      2148      2151      2152      2145      2148      2151      2153
      2145      2148      2151      2154      2146      2145      2148      2149
      2146      2145      2148      2150      2146      2145      2148      2151
      2147      2145      2148      2149      2147      2145      2148      2150
      2147      2145      2148      2151      2148      2151      2154      2155
      2148      2151      2154      2156      2148      2151      2154      2157
      2149      2148      2151      2152      2149      2148      2151      2153
      2149      2148      2151      2154      2150      2148      2151      2152
      2150      2148      2151      2153      2150      2148      2151      2154
      2151      2154      2157      2158      2151      2154      2157      2159
      2151      2154      2157      2160      2152      2151      2154      2155
      2152      2151      2154      2156      2152      2151      2154      2157
      2153      2151      2154      2155      2153      2151      2154      2156
      2153      2151      2154      2157      2155      2154      2157      2158
      2155      2154      2157      2159      2155      2154      2157      2160
      2156      2154      2157      2158      2156      2154      2157      2159
      2156      2154      2157      2160      2161      2164      2167      2168
      2161      2164      2167      2169      2161      2164      2167      2170
      2162      2161      2164      2165      2162      2161      2164      2166
      2162      2161      2164      2167      2163      2161      2164      2165
      2163      2161      2164      2166      2163      2161      2164      2167
      2164      2167      2170      2171      2164      2167      2170      2172
      2164      2167      2170      2173      2165      2164      2167      2168
      2165      2164      2167      2169      2165      2164      2167      2170
      2166      2164      2167      2168      2166      2164      2167      2169
      2166      2164      2167      2170      2167      2170      2173      2174
      2167      2170      2173      2175      2167      2170      2173      2176
      2168      2167      2170      2171      2168      2167      2170      2172
      2168      2167      2170      2173      2169      2167      2170      2171
      2169      2167      2170      2172      2169      2167      2170      2173
      2170      2173      2176      2177      2170      2173      2176      2178
      2170      2173      2176      2179      2171      2170      2173      2174
      2171      2170      2173      2175      2171      2170      2173      2176
      2172      2170      2173      2174      2172      2170      2173      2175
      2172      2170      2173      2176      2173      2176      2179      2180
      2173      2176      2179      2181      2173      2176      2179      2182
      2174      2173      2176      2177      2174      2173      2176      2178
      2174      2173      2176      2179      2175      2173      2176      2177
      2175      2173      2176      2178      2175      2173      2176      2179
      2176      2179      2182      2183      2176      2179      2182      2184
      2176      2179      2182      2185      2177      2176      2179      2180
      2177      2176      2179      2181      2177      2176      2179      2182
      2178      2176      2179      2180      2178      2176      2179      2181
      2178      2176      2179      2182      2179      2182      2185      2186
      2179      2182      2185      2187      2179      2182      2185      2188
      2180      2179      2182      2183      2180      2179      2182      2184
      2180      2179      2182      2185      2181      2179      2182      2183
      2181      2179      2182      2184      2181      2179      2182      2185
      2182      2185      2188      2189      2182      2185      2188      2190
      2182      2185      2188      2191      2183      2182      2185      2186
      2183      2182      2185      2187      2183      2182      2185      2188
      2184      2182      2185      2186      2184      2182      2185      2187
      2184      2182      2185      2188      2185      2188      2191      2192
      2185      2188      2191      2193      2185      2188      2191      2194
      2186      2185      2188      2189      2186      2185      2188      2190
      2186      2185      2188      2191      2187      2185      2188      2189
      2187      2185      2188      2190      2187      2185      2188      2191
      2188      2191      2194      2195      2188      2191      2194      2196
      2188      2191      2194      2197      2189      2188      2191      2192
      2189      2188      2191      2193      2189      2188      2191      2194
      2190      2188      2191      2192      2190      2188      2191      2193
      2190      2188      2191      2194      2191      2194      2197      2198
      2191      2194      2197      2199      2191      2194      2197      2200
      2192      2191      2194      2195      2192      2191      2194      2196
      2192      2191      2194      2197      2193      2191      2194      2195
      2193      2191      2194      2196      2193      2191      2194      2197
      2194      2197      2200      2201      2194      2197      2200      2202
      2194      2197      2200      2203      2195      2194      2197      2198
      2195      2194      2197      2199      2195      2194      2197      2200
      2196      2194      2197      2198      2196      2194      2197      2199
      2196      2194      2197      2200      2198      2197      2200      2201
      2198      2197      2200      2202      2198      2197      2200      2203
      2199      2197      2200      2201      2199      2197      2200      2202
      2199      2197      2200      2203      2204      2208      2211      2212
      2204      2208      2211      2213      2204      2208      2211      2218
      2205      2204      2208      2209      2205      2204      2208      2210
      2205      2204      2208      2211      2206      2204      2208      2209
      2206      2204      2208      2210      2206      2204      2208      2211
      2207      2204      2208      2209      2207      2204      2208      2210
      2207      2204      2208      2211      2208      2211      2218      2214
      2209      2208      2211      2212      2209      2208      2211      2213
      2209      2208      2211      2218      2210      2208      2211      2212
      2210      2208      2211      2213      2210      2208      2211      2218
      2211      2218      2214      2215      2211      2218      2214      2216
      2211      2218      2214      2217      2212      2211      2218      2214
      2213      2211      2218      2214      2214      2217      2219      2220
      2214      2217      2219      2221      2214      2217      2219      2222
      2215      2214      2217      2219      2216      2214      2217      2219
      2217      2219      2222      2223      2217      2219      2222      2224
      2217      2219      2222      2230      2218      2214      2217      2219
      2219      2222      2224      2225      2219      2222      2230      2231
      2219      2222      2230      2232      2219      2222      2230      2233
      2220      2219      2222      2223      2220      2219      2222      2224
      2220      2219      2222      2230      2221      2219      2222      2223
      2221      2219      2222      2224      2221      2219      2222      2230
      2222      2224      2225      2226      2222      2224      2225      2227
      2222      2230      2233      2234      2223      2222      2224      2225
      2223      2222      2230      2231      2223      2222      2230      2232
      2223      2222      2230      2233      2224      2222      2230      2231
      2224      2222      2230      2232      2224      2222      2230      2233
      2224      2225      2227      2228      2224      2225      2227      2229
      2224      2225      2227      2239      2225      2224      2222      2230
      2225      2227      2239      2240      2225      2227      2239      2241
      2225      2227      2239      2242      2226      2225      2227      2228
      2226      2225      2227      2229      2226      2225      2227      2239
      2227      2239      2242      2243      2227      2239      2242      2244
      2227      2239      2242      2245      2228      2227      2239      2240
      2228      2227      2239      2241      2228      2227      2239      2242
      2229      2227      2239      2240      2229      2227      2239      2241
      2229      2227      2239      2242      2230      2233      2234      2235
      2230      2233      2234      2236      2231      2230      2233      2234
      2232      2230      2233      2234      2233      2234      2236      2237
      2233      2234      2236      2238      2233      2234      2236      2283
      2234      2236      2283      2284      2234      2236      2283      2285
      2234      2236      2283      2286      2235      2234      2236      2237
      2235      2234      2236      2238      2235      2234      2236      2283
      2236      2283      2286      2287      2236      2283      2286      2288
      2236      2283      2286      2289      2237      2236      2283      2284
      2237      2236      2283      2285      2237      2236      2283      2286
      2238      2236      2283      2284      2238      2236      2283      2285
      2238      2236      2283      2286      2239      2242      2245      2246
      2239      2242      2245      2247      2239      2242      2245      2248
      2240      2239      2242      2243      2240      2239      2242      2244
      2240      2239      2242      2245      2241      2239      2242      2243
      2241      2239      2242      2244      2241      2239      2242      2245
      2242      2245      2248      2249      2242      2245      2248      2250
      2242      2245      2248      2251      2243      2242      2245      2246
      2243      2242      2245      2247      2243      2242      2245      2248
      2244      2242      2245      2246      2244      2242      2245      2247
      2244      2242      2245      2248      2245      2248      2251      2252
      2245      2248      2251      2253      2245      2248      2251      2254
      2246      2245      2248      2249      2246      2245      2248      2250
      2246      2245      2248      2251      2247      2245      2248      2249
      2247      2245      2248      2250      2247      2245      2248      2251
      2248      2251      2254      2255      2248      2251      2254      2256
      2248      2251      2254      2257      2249      2248      2251      2252
      2249      2248      2251      2253      2249      2248      2251      2254
      2250      2248      2251      2252      2250      2248      2251      2253
      2250      2248      2251      2254      2251      2254      2257      2258
      2251      2254      2257      2259      2251      2254      2257      2262
      2252      2251      2254      2255      2252      2251      2254      2256
      2252      2251      2254      2257      2253      2251      2254      2255
      2253      2251      2254      2256      2253      2251      2254      2257
      2254      2257      2259      2260      2254      2257      2259      2261
      2254      2257      2259      2262      2254      2257      2262      2259
      2254      2257      2262      2263      2254      2257      2262      2264
      2255      2254      2257      2258      2255      2254      2257      2259
      2255      2254      2257      2262      2256      2254      2257      2258
      2256      2254      2257      2259      2256      2254      2257      2262
      2257      2259      2262      2263      2257      2259      2262      2264
      2257      2262      2259      2260      2257      2262      2259      2261
      2257      2262      2264      2265      2257      2262      2264      2266
      2257      2262      2264      2267      2258      2257      2259      2260
      2258      2257      2259      2261      2258      2257      2259      2262
      2258      2257      2262      2259      2258      2257      2262      2263
      2258      2257      2262      2264      2259      2257      2262      2263
      2259      2257      2262      2264      2259      2262      2264      2265
      2259      2262      2264      2266      2259      2262      2264      2267
      2260      2259      2257      2262      2260      2259      2262      2263
      2260      2259      2262      2264      2261      2259      2257      2262
      2261      2259      2262      2263      2261      2259      2262      2264
      2262      2264      2267      2268      2262      2264      2267      2269
      2262      2264      2267      2270      2263      2262      2264      2265
      2263      2262      2264      2266      2263      2262      2264      2267
      2264      2267      2270      2271      2264      2267      2270      2272
      2264      2267      2270      2273      2265      2264      2267      2268
      2265      2264      2267      2269      2265      2264      2267      2270
      2266      2264      2267      2268      2266      2264      2267      2269
      2266      2264      2267      2270      2267      2270      2273      2274
      2267      2270      2273      2275      2267      2270      2273      2276
      2268      2267      2270      2271      2268      2267      2270      2272
      2268      2267      2270      2273      2269      2267      2270      2271
      2269      2267      2270      2272      2269      2267      2270      2273
      2270      2273      2276      2277      2270      2273      2276      2278
      2270      2273      2276      2279      2271      2270      2273      2274
      2271      2270      2273      2275      2271      2270      2273      2276
      2272      2270      2273      2274      2272      2270      2273      2275
      2272      2270      2273      2276      2273      2276      2279      2280
      2273      2276      2279      2281      2273      2276      2279      2282
      2274      2273      2276      2277      2274      2273      2276      2278
      2274      2273      2276      2279      2275      2273      2276      2277
      2275      2273      2276      2278      2275      2273      2276      2279
      2277      2276      2279      2280      2277      2276      2279      2281
      2277      2276      2279      2282      2278      2276      2279      2280
      2278      2276      2279      2281      2278      2276      2279      2282
      2283      2286      2289      2290      2283      2286      2289      2291
      2283      2286      2289      2292      2284      2283      2286      2287
      2284      2283      2286      2288      2284      2283      2286      2289
      2285      2283      2286      2287      2285      2283      2286      2288
      2285      2283      2286      2289      2286      2289      2292      2293
      2286      2289      2292      2294      2286      2289      2292      2295
      2287      2286      2289      2290      2287      2286      2289      2291
      2287      2286      2289      2292      2288      2286      2289      2290
      2288      2286      2289      2291      2288      2286      2289      2292
      2289      2292      2295      2296      2289      2292      2295      2297
      2289      2292      2295      2298      2290      2289      2292      2293
      2290      2289      2292      2294      2290      2289      2292      2295
      2291      2289      2292      2293      2291      2289      2292      2294
      2291      2289      2292      2295      2292      2295      2298      2299
      2292      2295      2298      2300      2292      2295      2298      2301
      2293      2292      2295      2296      2293      2292      2295      2297
      2293      2292      2295      2298      2294      2292      2295      2296
      2294      2292      2295      2297      2294      2292      2295      2298
      2295      2298      2301      2302      2295      2298      2301      2303
      2295      2298      2301      2304      2296      2295      2298      2299
      2296      2295      2298      2300      2296      2295      2298      2301
      2297      2295      2298      2299      2297      2295      2298      2300
      2297      2295      2298      2301      2298      2301      2304      2305
      2298      2301      2304      2306      2298      2301      2304      2307
      2299      2298      2301      2302      2299      2298      2301      2303
      2299      2298      2301      2304      2300      2298      2301      2302
      2300      2298      2301      2303      2300      2298      2301      2304
      2301      2304      2307      2308      2301      2304      2307      2309
      2301      2304      2307      2310      2302      2301      2304      2305
      2302      2301      2304      2306      2302      2301      2304      2307
      2303      2301      2304      2305      2303      2301      2304      2306
      2303      2301      2304      2307      2304      2307      2310      2311
      2304      2307      2310      2312      2304      2307      2310      2313
      2305      2304      2307      2308      2305      2304      2307      2309
      2305      2304      2307      2310      2306      2304      2307      2308
      2306      2304      2307      2309      2306      2304      2307      2310
      2307      2310      2313      2314      2307      2310      2313      2315
      2307      2310      2313      2316      2308      2307      2310      2311
      2308      2307      2310      2312      2308      2307      2310      2313
      2309      2307      2310      2311      2309      2307      2310      2312
      2309      2307      2310      2313      2310      2313      2316      2317
      2310      2313      2316      2318      2310      2313      2316      2319
      2311      2310      2313      2314      2311      2310      2313      2315
      2311      2310      2313      2316      2312      2310      2313      2314
      2312      2310      2313      2315      2312      2310      2313      2316
      2313      2316      2319      2320      2313      2316      2319      2321
      2313      2316      2319      2322      2314      2313      2316      2317
      2314      2313      2316      2318      2314      2313      2316      2319
      2315      2313      2316      2317      2315      2313      2316      2318
      2315      2313      2316      2319      2316      2319      2322      2323
      2316      2319      2322      2324      2316      2319      2322      2325
      2317      2316      2319      2320      2317      2316      2319      2321
      2317      2316      2319      2322      2318      2316      2319      2320
      2318      2316      2319      2321      2318      2316      2319      2322
      2320      2319      2322      2323      2320      2319      2322      2324
      2320      2319      2322      2325      2321      2319      2322      2323
      2321      2319      2322      2324      2321      2319      2322      2325
      2326      2330      2333      2334      2326      2330      2333      2335
      2326      2330      2333      2340      2327      2326      2330      2331
      2327      2326      2330      2332      2327      2326      2330      2333
      2328      2326      2330      2331      2328      2326      2330      2332
      2328      2326      2330      2333      2329      2326      2330      2331
      2329      2326      2330      2332      2329      2326      2330      2333
      2330      2333      2340      2336      2331      2330      2333      2334
      2331      2330      2333      2335      2331      2330      2333      2340
      2332      2330      2333      2334      2332      2330      2333      2335
      2332      2330      2333      2340      2333      2340      2336      2337
      2333      2340      2336      2338      2333      2340      2336      2339
      2334      2333      2340      2336      2335      2333      2340      2336
      2336      2339      2341      2342      2336      2339      2341      2343
      2336      2339      2341      2344      2337      2336      2339      2341
      2338      2336      2339      2341      2339      2341      2344      2345
      2339      2341      2344      2346      2339      2341      2344      2352
      2340      2336      2339      2341      2341      2344      2346      2347
      2341      2344      2352      2353      2341      2344      2352      2354
      2341      2344      2352      2355      2342      2341      2344      2345
      2342      2341      2344      2346      2342      2341      2344      2352
      2343      2341      2344      2345      2343      2341      2344      2346
      2343      2341      2344      2352      2344      2346      2347      2348
      2344      2346      2347      2349      2344      2352      2355      2356
      2345      2344      2346      2347      2345      2344      2352      2353
      2345      2344      2352      2354      2345      2344      2352      2355
      2346      2344      2352      2353      2346      2344      2352      2354
      2346      2344      2352      2355      2346      2347      2349      2350
      2346      2347      2349      2351      2346      2347      2349      2361
      2347      2346      2344      2352      2347      2349      2361      2362
      2347      2349      2361      2363      2347      2349      2361      2364
      2348      2347      2349      2350      2348      2347      2349      2351
      2348      2347      2349      2361      2349      2361      2364      2365
      2349      2361      2364      2366      2349      2361      2364      2367
      2350      2349      2361      2362      2350      2349      2361      2363
      2350      2349      2361      2364      2351      2349      2361      2362
      2351      2349      2361      2363      2351      2349      2361      2364
      2352      2355      2356      2357      2352      2355      2356      2358
      2353      2352      2355      2356      2354      2352      2355      2356
      2355      2356      2358      2359      2355      2356      2358      2360
      2355      2356      2358      2408      2356      2358      2408      2409
      2356      2358      2408      2410      2356      2358      2408      2411
      2357      2356      2358      2359      2357      2356      2358      2360
      2357      2356      2358      2408      2358      2408      2411      2412
      2358      2408      2411      2413      2358      2408      2411      2414
      2359      2358      2408      2409      2359      2358      2408      2410
      2359      2358      2408      2411      2360      2358      2408      2409
      2360      2358      2408      2410      2360      2358      2408      2411
      2361      2364      2367      2368      2361      2364      2367      2369
      2361      2364      2367      2370      2362      2361      2364      2365
      2362      2361      2364      2366      2362      2361      2364      2367
      2363      2361      2364      2365      2363      2361      2364      2366
      2363      2361      2364      2367      2364      2367      2370      2371
      2364      2367      2370      2372      2364      2367      2370      2373
      2365      2364      2367      2368      2365      2364      2367      2369
      2365      2364      2367      2370      2366      2364      2367      2368
      2366      2364      2367      2369      2366      2364      2367      2370
      2367      2370      2373      2374      2367      2370      2373      2375
      2367      2370      2373      2376      2368      2367      2370      2371
      2368      2367      2370      2372      2368      2367      2370      2373
      2369      2367      2370      2371      2369      2367      2370      2372
      2369      2367      2370      2373      2370      2373      2376      2377
      2370      2373      2376      2378      2370      2373      2376      2379
      2371      2370      2373      2374      2371      2370      2373      2375
      2371      2370      2373      2376      2372      2370      2373      2374
      2372      2370      2373      2375      2372      2370      2373      2376
      2373      2376      2379      2380      2373      2376      2379      2381
      2374      2373      2376      2377      2374      2373      2376      2378
      2374      2373      2376      2379      2375      2373      2376      2377
      2375      2373      2376      2378      2375      2373      2376      2379
      2376      2379      2381      2382      2376      2379      2381      2383
      2377      2376      2379      2380      2377      2376      2379      2381
      2378      2376      2379      2380      2378      2376      2379      2381
      2379      2381      2383      2384      2379      2381      2383      2385
      2379      2381      2383      2386      2380      2379      2381      2382
      2380      2379      2381      2383      2381      2383      2386      2387
      2381      2383      2386      2388      2381      2383      2386      2389
      2382      2381      2383      2384      2382      2381      2383      2385
      2382      2381      2383      2386      2383      2386      2389      2390
      2383      2386      2389      2391      2383      2386      2389      2392
      2384      2383      2386      2387      2384      2383      2386      2388
      2384      2383      2386      2389      2385      2383      2386      2387
      2385      2383      2386      2388      2385      2383      2386      2389
      2386      2389      2392      2393      2386      2389      2392      2394
      2386      2389      2392      2395      2387      2386      2389      2390
      2387      2386      2389      2391      2387      2386      2389      2392
      2388      2386      2389      2390      2388      2386      2389      2391
      2388      2386      2389      2392      2389      2392      2395      2396
      2389      2392      2395      2397      2389      2392      2395      2398
      2390      2389      2392      2393      2390      2389      2392      2394
      2390      2389      2392      2395      2391      2389      2392      2393
      2391      2389      2392      2394      2391      2389      2392      2395
      2392      2395      2398      2399      2392      2395      2398      2400
      2392      2395      2398      2401      2393      2392      2395      2396
      2393      2392      2395      2397      2393      2392      2395      2398
      2394      2392      2395      2396      2394      2392      2395      2397
      2394      2392      2395      2398      2395      2398      2401      2402
      2395      2398      2401      2403      2395      2398      2401      2404
      2396      2395      2398      2399      2396      2395      2398      2400
      2396      2395      2398      2401      2397      2395      2398      2399
      2397      2395      2398      2400      2397      2395      2398      2401
      2398      2401      2404      2405      2398      2401      2404      2406
      2398      2401      2404      2407      2399      2398      2401      2402
      2399      2398      2401      2403      2399      2398      2401      2404
      2400      2398      2401      2402      2400      2398      2401      2403
      2400      2398      2401      2404      2402      2401      2404      2405
      2402      2401      2404      2406      2402      2401      2404      2407
      2403      2401      2404      2405      2403      2401      2404      2406
      2403      2401      2404      2407      2408      2411      2414      2415
      2408      2411      2414      2416      2408      2411      2414      2417
      2409      2408      2411      2412      2409      2408      2411      2413
      2409      2408      2411      2414      2410      2408      2411      2412
      2410      2408      2411      2413      2410      2408      2411      2414
      2411      2414      2417      2418      2411      2414      2417      2419
      2411      2414      2417      2420      2412      2411      2414      2415
      2412      2411      2414      2416      2412      2411      2414      2417
      2413      2411      2414      2415      2413      2411      2414      2416
      2413      2411      2414      2417      2414      2417      2420      2421
      2414      2417      2420      2422      2414      2417      2420      2423
      2415      2414      2417      2418      2415      2414      2417      2419
      2415      2414      2417      2420      2416      2414      2417      2418
      2416      2414      2417      2419      2416      2414      2417      2420
      2417      2420      2423      2424      2417      2420      2423      2425
      2417      2420      2423      2426      2418      2417      2420      2421
      2418      2417      2420      2422      2418      2417      2420      2423
      2419      2417      2420      2421      2419      2417      2420      2422
      2419      2417      2420      2423      2420      2423      2426      2427
      2420      2423      2426      2428      2420      2423      2426      2429
      2421      2420      2423      2424      2421      2420      2423      2425
      2421      2420      2423      2426      2422      2420      2423      2424
      2422      2420      2423      2425      2422      2420      2423      2426
      2423      2426      2429      2430      2423      2426      2429      2431
      2423      2426      2429      2432      2424      2423      2426      2427
      2424      2423      2426      2428      2424      2423      2426      2429
      2425      2423      2426      2427      2425      2423      2426      2428
      2425      2423      2426      2429      2426      2429      2432      2433
      2426      2429      2432      2434      2426      2429      2432      2435
      2427      2426      2429      2430      2427      2426      2429      2431
      2427      2426      2429      2432      2428      2426      2429      2430
      2428      2426      2429      2431      2428      2426      2429      2432
      2429      2432      2435      2436      2429      2432      2435      2437
      2429      2432      2435      2438      2430      2429      2432      2433
      2430      2429      2432      2434      2430      2429      2432      2435
      2431      2429      2432      2433      2431      2429      2432      2434
      2431      2429      2432      2435      2432      2435      2438      2439
      2432      2435      2438      2440      2432      2435      2438      2441
      2433      2432      2435      2436      2433      2432      2435      2437
      2433      2432      2435      2438      2434      2432      2435      2436
      2434      2432      2435      2437      2434      2432      2435      2438
      2435      2438      2441      2442      2435      2438      2441      2443
      2435      2438      2441      2444      2436      2435      2438      2439
      2436      2435      2438      2440      2436      2435      2438      2441
      2437      2435      2438      2439      2437      2435      2438      2440
      2437      2435      2438      2441      2438      2441      2444      2445
      2438      2441      2444      2446      2438      2441      2444      2447
      2439      2438      2441      2442      2439      2438      2441      2443
      2439      2438      2441      2444      2440      2438      2441      2442
      2440      2438      2441      2443      2440      2438      2441      2444
      2441      2444      2447      2448      2441      2444      2447      2449
      2441      2444      2447      2450      2442      2441      2444      2445
      2442      2441      2444      2446      2442      2441      2444      2447
      2443      2441      2444      2445      2443      2441      2444      2446
      2443      2441      2444      2447      2445      2444      2447      2448
      2445      2444      2447      2449      2445      2444      2447      2450
      2446      2444      2447      2448      2446      2444      2447      2449
      2446      2444      2447      2450      2451      2455      2458      2459
      2451      2455      2458      2460      2451      2455      2458      2465
      2452      2451      2455      2456      2452      2451      2455      2457
      2452      2451      2455      2458      2453      2451      2455      2456
      2453      2451      2455      2457      2453      2451      2455      2458
      2454      2451      2455      2456      2454      2451      2455      2457
      2454      2451      2455      2458      2455      2458      2465      2461
      2456      2455      2458      2459      2456      2455      2458      2460
      2456      2455      2458      2465      2457      2455      2458      2459
      2457      2455      2458      2460      2457      2455      2458      2465
      2458      2465      2461      2462      2458      2465      2461      2463
      2458      2465      2461      2464      2459      2458      2465      2461
      2460      2458      2465      2461      2461      2464      2466      2467
      2461      2464      2466      2468      2461      2464      2466      2469
      2462      2461      2464      2466      2463      2461      2464      2466
      2464      2466      2469      2470      2464      2466      2469      2471
      2464      2466      2469      2477      2465      2461      2464      2466
      2466      2469      2471      2472      2466      2469      2477      2478
      2466      2469      2477      2479      2466      2469      2477      2480
      2467      2466      2469      2470      2467      2466      2469      2471
      2467      2466      2469      2477      2468      2466      2469      2470
      2468      2466      2469      2471      2468      2466      2469      2477
      2469      2471      2472      2473      2469      2471      2472      2474
      2469      2477      2480      2481      2470      2469      2471      2472
      2470      2469      2477      2478      2470      2469      2477      2479
      2470      2469      2477      2480      2471      2469      2477      2478
      2471      2469      2477      2479      2471      2469      2477      2480
      2471      2472      2474      2475      2471      2472      2474      2476
      2471      2472      2474      2486      2472      2471      2469      2477
      2472      2474      2486      2487      2472      2474      2486      2488
      2472      2474      2486      2489      2473      2472      2474      2475
      2473      2472      2474      2476      2473      2472      2474      2486
      2474      2486      2489      2490      2474      2486      2489      2491
      2474      2486      2489      2492      2475      2474      2486      2487
      2475      2474      2486      2488      2475      2474      2486      2489
      2476      2474      2486      2487      2476      2474      2486      2488
      2476      2474      2486      2489      2477      2480      2481      2482
      2477      2480      2481      2483      2478      2477      2480      2481
      2479      2477      2480      2481      2480      2481      2483      2484
      2480      2481      2483      2485      2480      2481      2483      2530
      2481      2483      2530      2531      2481      2483      2530      2532
      2481      2483      2530      2533      2482      2481      2483      2484
      2482      2481      2483      2485      2482      2481      2483      2530
      2483      2530      2533      2534      2483      2530      2533      2535
      2483      2530      2533      2536      2484      2483      2530      2531
      2484      2483      2530      2532      2484      2483      2530      2533
      2485      2483      2530      2531      2485      2483      2530      2532
      2485      2483      2530      2533      2486      2489      2492      2493
      2486      2489      2492      2494      2486      2489      2492      2495
      2487      2486      2489      2490      2487      2486      2489      2491
      2487      2486      2489      2492      2488      2486      2489      2490
      2488      2486      2489      2491      2488      2486      2489      2492
      2489      2492      2495      2496      2489      2492      2495      2497
      2489      2492      2495      2498      2490      2489      2492      2493
      2490      2489      2492      2494      2490      2489      2492      2495
      2491      2489      2492      2493      2491      2489      2492      2494
      2491      2489      2492      2495      2492      2495      2498      2499
      2492      2495      2498      2500      2492      2495      2498      2501
      2493      2492      2495      2496      2493      2492      2495      2497
      2493      2492      2495      2498      2494      2492      2495      2496
      2494      2492      2495      2497      2494      2492      2495      2498
      2495      2498      2501      2502      2495      2498      2501      2503
      2495      2498      2501      2504      2496      2495      2498      2499
      2496      2495      2498      2500      2496      2495      2498      2501
      2497      2495      2498      2499      2497      2495      2498      2500
      2497      2495      2498      2501      2498      2501      2504      2505
      2498      2501      2504      2506      2498      2501      2504      2509
      2499      2498      2501      2502      2499      2498      2501      2503
      2499      2498      2501      2504      2500      2498      2501      2502
      2500      2498      2501      2503      2500      2498      2501      2504
      2501      2504      2506      2507      2501      2504      2506      2508
      2501      2504      2506      2509      2501      2504      2509      2506
      2501      2504      2509      2510      2501      2504      2509      2511
      2502      2501      2504      2505      2502      2501      2504      2506
      2502      2501      2504      2509      2503      2501      2504      2505
      2503      2501      2504      2506      2503      2501      2504      2509
      2504      2506      2509      2510      2504      2506      2509      2511
      2504      2509      2506      2507      2504      2509      2506      2508
      2504      2509      2511      2512      2504      2509      2511      2513
      2504      2509      2511      2514      2505      2504      2506      2507
      2505      2504      2506      2508      2505      2504      2506      2509
      2505      2504      2509      2506      2505      2504      2509      2510
      2505      2504      2509      2511      2506      2504      2509      2510
      2506      2504      2509      2511      2506      2509      2511      2512
      2506      2509      2511      2513      2506      2509      2511      2514
      2507      2506      2504      2509      2507      2506      2509      2510
      2507      2506      2509      2511      2508      2506      2504      2509
      2508      2506      2509      2510      2508      2506      2509      2511
      2509      2511      2514      2515      2509      2511      2514      2516
      2509      2511      2514      2517      2510      2509      2511      2512
      2510      2509      2511      2513      2510      2509      2511      2514
      2511      2514      2517      2518      2511      2514      2517      2519
      2511      2514      2517      2520      2512      2511      2514      2515
      2512      2511      2514      2516      2512      2511      2514      2517
      2513      2511      2514      2515      2513      2511      2514      2516
      2513      2511      2514      2517      2514      2517      2520      2521
      2514      2517      2520      2522      2514      2517      2520      2523
      2515      2514      2517      2518      2515      2514      2517      2519
      2515      2514      2517      2520      2516      2514      2517      2518
      2516      2514      2517      2519      2516      2514      2517      2520
      2517      2520      2523      2524      2517      2520      2523      2525
      2517      2520      2523      2526      2518      2517      2520      2521
      2518      2517      2520      2522      2518      2517      2520      2523
      2519      2517      2520      2521      2519      2517      2520      2522
      2519      2517      2520      2523      2520      2523      2526      2527
      2520      2523      2526      2528      2520      2523      2526      2529
      2521      2520      2523      2524      2521      2520      2523      2525
      2521      2520      2523      2526      2522      2520      2523      2524
      2522      2520      2523      2525      2522      2520      2523      2526
      2524      2523      2526      2527      2524      2523      2526      2528
      2524      2523      2526      2529      2525      2523      2526      2527
      2525      2523      2526      2528      2525      2523      2526      2529
      2530      2533      2536      2537      2530      2533      2536      2538
      2530      2533      2536      2539      2531      2530      2533      2534
      2531      2530      2533      2535      2531      2530      2533      2536
      2532      2530      2533      2534      2532      2530      2533      2535
      2532      2530      2533      2536      2533      2536      2539      2540
      2533      2536      2539      2541      2533      2536      2539      2542
      2534      2533      2536      2537      2534      2533      2536      2538
      2534      2533      2536      2539      2535      2533      2536      2537
      2535      2533      2536      2538      2535      2533      2536      2539
      2536      2539      2542      2543      2536      2539      2542      2544
      2536      2539      2542      2545      2537      2536      2539      2540
      2537      2536      2539      2541      2537      2536      2539      2542
      2538      2536      2539      2540      2538      2536      2539      2541
      2538      2536      2539      2542      2539      2542      2545      2546
      2539      2542      2545      2547      2539      2542      2545      2548
      2540      2539      2542      2543      2540      2539      2542      2544
      2540      2539      2542      2545      2541      2539      2542      2543
      2541      2539      2542      2544      2541      2539      2542      2545
      2542      2545      2548      2549      2542      2545      2548      2550
      2542      2545      2548      2551      2543      2542      2545      2546
      2543      2542      2545      2547      2543      2542      2545      2548
      2544      2542      2545      2546      2544      2542      2545      2547
      2544      2542      2545      2548      2545      2548      2551      2552
      2545      2548      2551      2553      2545      2548      2551      2554
      2546      2545      2548      2549      2546      2545      2548      2550
      2546      2545      2548      2551      2547      2545      2548      2549
      2547      2545      2548      2550      2547      2545      2548      2551
      2548      2551      2554      2555      2548      2551      2554      2556
      2548      2551      2554      2557      2549      2548      2551      2552
      2549      2548      2551      2553      2549      2548      2551      2554
      2550      2548      2551      2552      2550      2548      2551      2553
      2550      2548      2551      2554      2551      2554      2557      2558
      2551      2554      2557      2559      2551      2554      2557      2560
      2552      2551      2554      2555      2552      2551      2554      2556
      2552      2551      2554      2557      2553      2551      2554      2555
      2553      2551      2554      2556      2553      2551      2554      2557
      2554      2557      2560      2561      2554      2557      2560      2562
      2554      2557      2560      2563      2555      2554      2557      2558
      2555      2554      2557      2559      2555      2554      2557      2560
      2556      2554      2557      2558      2556      2554      2557      2559
      2556      2554      2557      2560      2557      2560      2563      2564
      2557      2560      2563      2565      2557      2560      2563      2566
      2558      2557      2560      2561      2558      2557      2560      2562
      2558      2557      2560      2563      2559      2557      2560      2561
      2559      2557      2560      2562      2559      2557      2560      2563
      2560      2563      2566      2567      2560      2563      2566      2568
      2560      2563      2566      2569      2561      2560      2563      2564
      2561      2560      2563      2565      2561      2560      2563      2566
      2562      2560      2563      2564      2562      2560      2563      2565
      2562      2560      2563      2566      2563      2566      2569      2570
      2563      2566      2569      2571      2563      2566      2569      2572
      2564      2563      2566      2567      2564      2563      2566      2568
      2564      2563      2566      2569      2565      2563      2566      2567
      2565      2563      2566      2568      2565      2563      2566      2569
      2567      2566      2569      2570      2567      2566      2569      2571
      2567      2566      2569      2572      2568      2566      2569      2570
      2568      2566      2569      2571      2568      2566      2569      2572
      2573      2577      2580      2581      2573      2577      2580      2582
      2573      2577      2580      2587      2574      2573      2577      2578
      2574      2573      2577      2579      2574      2573      2577      2580
      2575      2573      2577      2578      2575      2573      2577      2579
      2575      2573      2577      2580      2576      2573      2577      2578
      2576      2573      2577      2579      2576      2573      2577      2580
      2577      2580      2587      2583      2578      2577      2580      2581
      2578      2577      2580      2582      2578      2577      2580      2587
      2579      2577      2580      2581      2579      2577      2580      2582
      2579      2577      2580      2587      2580      2587      2583      2584
      2580      2587      2583      2585      2580      2587      2583      2586
      2581      2580      2587      2583      2582      2580      2587      2583
      2583      2586      2588      2589      2583      2586      2588      2590
      2583      2586      2588      2591      2584      2583      2586      2588
      2585      2583      2586      2588      2586      2588      2591      2592
      2586      2588      2591      2593      2586      2588      2591      2599
      2587      2583      2586      2588      2588      2591      2593      2594
      2588      2591      2599      2600      2588      2591      2599      2601
      2588      2591      2599      2602      2589      2588      2591      2592
      2589      2588      2591      2593      2589      2588      2591      2599
      2590      2588      2591      2592      2590      2588      2591      2593
      2590      2588      2591      2599      2591      2593      2594      2595
      2591      2593      2594      2596      2591      2599      2602      2603
      2592      2591      2593      2594      2592      2591      2599      2600
      2592      2591      2599      2601      2592      2591      2599      2602
      2593      2591      2599      2600      2593      2591      2599      2601
      2593      2591      2599      2602      2593      2594      2596      2597
      2593      2594      2596      2598      2593      2594      2596      2608
      2594      2593      2591      2599      2594      2596      2608      2609
      2594      2596      2608      2610      2594      2596      2608      2611
      2595      2594      2596      2597      2595      2594      2596      2598
      2595      2594      2596      2608      2596      2608      2611      2612
      2596      2608      2611      2613      2596      2608      2611      2614
      2597      2596      2608      2609      2597      2596      2608      2610
      2597      2596      2608      2611      2598      2596      2608      2609
      2598      2596      2608      2610      2598      2596      2608      2611
      2599      2602      2603      2604      2599      2602      2603      2605
      2600      2599      2602      2603      2601      2599      2602      2603
      2602      2603      2605      2606      2602      2603      2605      2607
      2602      2603      2605      2652      2603      2605      2652      2653
      2603      2605      2652      2654      2603      2605      2652      2655
      2604      2603      2605      2606      2604      2603      2605      2607
      2604      2603      2605      2652      2605      2652      2655      2656
      2605      2652      2655      2657      2605      2652      2655      2658
      2606      2605      2652      2653      2606      2605      2652      2654
      2606      2605      2652      2655      2607      2605      2652      2653
      2607      2605      2652      2654      2607      2605      2652      2655
      2608      2611      2614      2615      2608      2611      2614      2616
      2608      2611      2614      2617      2609      2608      2611      2612
      2609      2608      2611      2613      2609      2608      2611      2614
      2610      2608      2611      2612      2610      2608      2611      2613
      2610      2608      2611      2614      2611      2614      2617      2618
      2611      2614      2617      2619      2611      2614      2617      2620
      2612      2611      2614      2615      2612      2611      2614      2616
      2612      2611      2614      2617      2613      2611      2614      2615
      2613      2611      2614      2616      2613      2611      2614      2617
      2614      2617      2620      2621      2614      2617      2620      2622
      2614      2617      2620      2623      2615      2614      2617      2618
      2615      2614      2617      2619      2615      2614      2617      2620
      2616      2614      2617      2618      2616      2614      2617      2619
      2616      2614      2617      2620      2617      2620      2623      2624
      2617      2620      2623      2625      2617      2620      2623      2626
      2618      2617      2620      2621      2618      2617      2620      2622
      2618      2617      2620      2623      2619      2617      2620      2621
      2619      2617      2620      2622      2619      2617      2620      2623
      2620      2623      2626      2627      2620      2623      2626      2628
      2620      2623      2626      2631      2621      2620      2623      2624
      2621      2620      2623      2625      2621      2620      2623      2626
      2622      2620      2623      2624      2622      2620      2623      2625
      2622      2620      2623      2626      2623      2626      2628      2629
      2623      2626      2628      2630      2623      2626      2628      2631
      2623      2626      2631      2628      2623      2626      2631      2632
      2623      2626      2631      2633      2624      2623      2626      2627
      2624      2623      2626      2628      2624      2623      2626      2631
      2625      2623      2626      2627      2625      2623      2626      2628
      2625      2623      2626      2631      2626      2628      2631      2632
      2626      2628      2631      2633      2626      2631      2628      2629
      2626      2631      2628      2630      2626      2631      2633      2634
      2626      2631      2633      2635      2626      2631      2633      2636
      2627      2626      2628      2629      2627      2626      2628      2630
      2627      2626      2628      2631      2627      2626      2631      2628
      2627      2626      2631      2632      2627      2626      2631      2633
      2628      2626      2631      2632      2628      2626      2631      2633
      2628      2631      2633      2634      2628      2631      2633      2635
      2628      2631      2633      2636      2629      2628      2626      2631
      2629      2628      2631      2632      2629      2628      2631      2633
      2630      2628      2626      2631      2630      2628      2631      2632
      2630      2628      2631      2633      2631      2633      2636      2637
      2631      2633      2636      2638      2631      2633      2636      2639
      2632      2631      2633      2634      2632      2631      2633      2635
      2632      2631      2633      2636      2633      2636      2639      2640
      2633      2636      2639      2641      2633      2636      2639      2642
      2634      2633      2636      2637      2634      2633      2636      2638
      2634      2633      2636      2639      2635      2633      2636      2637
      2635      2633      2636      2638      2635      2633      2636      2639
      2636      2639      2642      2643      2636      2639      2642      2644
      2636      2639      2642      2645      2637      2636      2639      2640
      2637      2636      2639      2641      2637      2636      2639      2642
      2638      2636      2639      2640      2638      2636      2639      2641
      2638      2636      2639      2642      2639      2642      2645      2646
      2639      2642      2645      2647      2639      2642      2645      2648
      2640      2639      2642      2643      2640      2639      2642      2644
      2640      2639      2642      2645      2641      2639      2642      2643
      2641      2639      2642      2644      2641      2639      2642      2645
      2642      2645      2648      2649      2642      2645      2648      2650
      2642      2645      2648      2651      2643      2642      2645      2646
      2643      2642      2645      2647      2643      2642      2645      2648
      2644      2642      2645      2646      2644      2642      2645      2647
      2644      2642      2645      2648      2646      2645      2648      2649
      2646      2645      2648      2650      2646      2645      2648      2651
      2647      2645      2648      2649      2647      2645      2648      2650
      2647      2645      2648      2651      2652      2655      2658      2659
      2652      2655      2658      2660      2652      2655      2658      2661
      2653      2652      2655      2656      2653      2652      2655      2657
      2653      2652      2655      2658      2654      2652      2655      2656
      2654      2652      2655      2657      2654      2652      2655      2658
      2655      2658      2661      2662      2655      2658      2661      2663
      2655      2658      2661      2664      2656      2655      2658      2659
      2656      2655      2658      2660      2656      2655      2658      2661
      2657      2655      2658      2659      2657      2655      2658      2660
      2657      2655      2658      2661      2658      2661      2664      2665
      2658      2661      2664      2666      2658      2661      2664      2667
      2659      2658      2661      2662      2659      2658      2661      2663
      2659      2658      2661      2664      2660      2658      2661      2662
      2660      2658      2661      2663      2660      2658      2661      2664
      2661      2664      2667      2668      2661      2664      2667      2669
      2661      2664      2667      2670      2662      2661      2664      2665
      2662      2661      2664      2666      2662      2661      2664      2667
      2663      2661      2664      2665      2663      2661      2664      2666
      2663      2661      2664      2667      2664      2667      2670      2671
      2664      2667      2670      2672      2664      2667      2670      2673
      2665      2664      2667      2668      2665      2664      2667      2669
      2665      2664      2667      2670      2666      2664      2667      2668
      2666      2664      2667      2669      2666      2664      2667      2670
      2667      2670      2673      2674      2667      2670      2673      2675
      2667      2670      2673      2676      2668      2667      2670      2671
      2668      2667      2670      2672      2668      2667      2670      2673
      2669      2667      2670      2671      2669      2667      2670      2672
      2669      2667      2670      2673      2670      2673      2676      2677
      2670      2673      2676      2678      2670      2673      2676      2679
      2671      2670      2673      2674      2671      2670      2673      2675
      2671      2670      2673      2676      2672      2670      2673      2674
      2672      2670      2673      2675      2672      2670      2673      2676
      2673      2676      2679      2680      2673      2676      2679      2681
      2673      2676      2679      2682      2674      2673      2676      2677
      2674      2673      2676      2678      2674      2673      2676      2679
      2675      2673      2676      2677      2675      2673      2676      2678
      2675      2673      2676      2679      2676      2679      2682      2683
      2676      2679      2682      2684      2676      2679      2682      2685
      2677      2676      2679      2680      2677      2676      2679      2681
      2677      2676      2679      2682      2678      2676      2679      2680
      2678      2676      2679      2681      2678      2676      2679      2682
      2679      2682      2685      2686      2679      2682      2685      2687
      2679      2682      2685      2688      2680      2679      2682      2683
      2680      2679      2682      2684      2680      2679      2682      2685
      2681      2679      2682      2683      2681      2679      2682      2684
      2681      2679      2682      2685      2682      2685      2688      2689
      2682      2685      2688      2690      2682      2685      2688      2691
      2683      2682      2685      2686      2683      2682      2685      2687
      2683      2682      2685      2688      2684      2682      2685      2686
      2684      2682      2685      2687      2684      2682      2685      2688
      2686      2685      2688      2689      2686      2685      2688      2690
      2686      2685      2688      2691      2687      2685      2688      2689
      2687      2685      2688      2690      2687      2685      2688      2691
      2692      2696      2699      2700      2692      2696      2699      2701
      2692      2696      2699      2706      2693      2692      2696      2697
      2693      2692      2696      2698      2693      2692      2696      2699
      2694      2692      2696      2697      2694      2692      2696      2698
      2694      2692      2696      2699      2695      2692      2696      2697
      2695      2692      2696      2698      2695      2692      2696      2699
      2696      2699      2706      2702      2697      2696      2699      2700
      2697      2696      2699      2701      2697      2696      2699      2706
      2698      2696      2699      2700      2698      2696      2699      2701
      2698      2696      2699      2706      2699      2706      2702      2703
      2699      2706      2702      2704      2699      2706      2702      2705
      2700      2699      2706      2702      2701      2699      2706      2702
      2702      2705      2707      2708      2702      2705      2707      2709
      2702      2705      2707      2710      2703      2702      2705      2707
      2704      2702      2705      2707      2705      2707      2710      2711
      2705      2707      2710      2712      2705      2707      2710      2718
      2706      2702      2705      2707      2707      2710      2712      2713
      2707      2710      2718      2719      2707      2710      2718      2720
      2707      2710      2718      2721      2708      2707      2710      2711
      2708      2707      2710      2712      2708      2707      2710      2718
      2709      2707      2710      2711      2709      2707      2710      2712
      2709      2707      2710      2718      2710      2712      2713      2714
      2710      2712      2713      2715      2710      2718      2721      2722
      2711      2710      2712      2713      2711      2710      2718      2719
      2711      2710      2718      2720      2711      2710      2718      2721
      2712      2710      2718      2719      2712      2710      2718      2720
      2712      2710      2718      2721      2712      2713      2715      2716
      2712      2713      2715      2717      2712      2713      2715      2727
      2713      2712      2710      2718      2713      2715      2727      2728
      2713      2715      2727      2729      2713      2715      2727      2730
      2714      2713      2715      2716      2714      2713      2715      2717
      2714      2713      2715      2727      2715      2727      2730      2731
      2715      2727      2730      2732      2715      2727      2730      2733
      2716      2715      2727      2728      2716      2715      2727      2729
      2716      2715      2727      2730      2717      2715      2727      2728
      2717      2715      2727      2729      2717      2715      2727      2730
      2718      2721      2722      2723      2718      2721      2722      2724
      2719      2718      2721      2722      2720      2718      2721      2722
      2721      2722      2724      2725      2721      2722      2724      2726
      2721      2722      2724      2771      2722      2724      2771      2772
      2722      2724      2771      2773      2722      2724      2771      2774
      2723      2722      2724      2725      2723      2722      2724      2726
      2723      2722      2724      2771      2724      2771      2774      2775
      2724      2771      2774      2776      2724      2771      2774      2777
      2725      2724      2771      2772      2725      2724      2771      2773
      2725      2724      2771      2774      2726      2724      2771      2772
      2726      2724      2771      2773      2726      2724      2771      2774
      2727      2730      2733      2734      2727      2730      2733      2735
      2727      2730      2733      2736      2728      2727      2730      2731
      2728      2727      2730      2732      2728      2727      2730      2733
      2729      2727      2730      2731      2729      2727      2730      2732
      2729      2727      2730      2733      2730      2733      2736      2737
      2730      2733      2736      2738      2730      2733      2736      2739
      2731      2730      2733      2734      2731      2730      2733      2735
      2731      2730      2733      2736      2732      2730      2733      2734
      2732      2730      2733      2735      2732      2730      2733      2736
      2733      2736      2739      2740      2733      2736      2739      2741
      2733      2736      2739      2742      2734      2733      2736      2737
      2734      2733      2736      2738      2734      2733      2736      2739
      2735      2733      2736      2737      2735      2733      2736      2738
      2735      2733      2736      2739      2736      2739      2742      2743
      2736      2739      2742      2744      2736      2739      2742      2745
      2737      2736      2739      2740      2737      2736      2739      2741
      2737      2736      2739      2742      2738      2736      2739      2740
      2738      2736      2739      2741      2738      2736      2739      2742
      2739      2742      2745      2746      2739      2742      2745      2747
      2739      2742      2745      2750      2740      2739      2742      2743
      2740      2739      2742      2744      2740      2739      2742      2745
      2741      2739      2742      2743      2741      2739      2742      2744
      2741      2739      2742      2745      2742      2745      2747      2748
      2742      2745      2747      2749      2742      2745      2747      2750
      2742      2745      2750      2747      2742      2745      2750      2751
      2742      2745      2750      2752      2743      2742      2745      2746
      2743      2742      2745      2747      2743      2742      2745      2750
      2744      2742      2745      2746      2744      2742      2745      2747
      2744      2742      2745      2750      2745      2747      2750      2751
      2745      2747      2750      2752      2745      2750      2747      2748
      2745      2750      2747      2749      2745      2750      2752      2753
      2745      2750      2752      2754      2745      2750      2752      2755
      2746      2745      2747      2748      2746      2745      2747      2749
      2746      2745      2747      2750      2746      2745      2750      2747
      2746      2745      2750      2751      2746      2745      2750      2752
      2747      2745      2750      2751      2747      2745      2750      2752
      2747      2750      2752      2753      2747      2750      2752      2754
      2747      2750      2752      2755      2748      2747      2745      2750
      2748      2747      2750      2751      2748      2747      2750      2752
      2749      2747      2745      2750      2749      2747      2750      2751
      2749      2747      2750      2752      2750      2752      2755      2756
      2750      2752      2755      2757      2750      2752      2755      2758
      2751      2750      2752      2753      2751      2750      2752      2754
      2751      2750      2752      2755      2752      2755      2758      2759
      2752      2755      2758      2760      2752      2755      2758      2761
      2753      2752      2755      2756      2753      2752      2755      2757
      2753      2752      2755      2758      2754      2752      2755      2756
      2754      2752      2755      2757      2754      2752      2755      2758
      2755      2758      2761      2762      2755      2758      2761      2763
      2755      2758      2761      2764      2756      2755      2758      2759
      2756      2755      2758      2760      2756      2755      2758      2761
      2757      2755      2758      2759      2757      2755      2758      2760
      2757      2755      2758      2761      2758      2761      2764      2765
      2758      2761      2764      2766      2758      2761      2764      2767
      2759      2758      2761      2762      2759      2758      2761      2763
      2759      2758      2761      2764      2760      2758      2761      2762
      2760      2758      2761      2763      2760      2758      2761      2764
      2761      2764      2767      2768      2761      2764      2767      2769
      2761      2764      2767      2770      2762      2761      2764      2765
      2762      2761      2764      2766      2762      2761      2764      2767
      2763      2761      2764      2765      2763      2761      2764      2766
      2763      2761      2764      2767      2765      2764      2767      2768
      2765      2764      2767      2769      2765      2764      2767      2770
      2766      2764      2767      2768      2766      2764      2767      2769
      2766      2764      2767      2770      2771      2774      2777      2778
      2771      2774      2777      2779      2771      2774      2777      2780
      2772      2771      2774      2775      2772      2771      2774      2776
      2772      2771      2774      2777      2773      2771      2774      2775
      2773      2771      2774      2776      2773      2771      2774      2777
      2774      2777      2780      2781      2774      2777      2780      2782
      2774      2777      2780      2783      2775      2774      2777      2778
      2775      2774      2777      2779      2775      2774      2777      2780
      2776      2774      2777      2778      2776      2774      2777      2779
      2776      2774      2777      2780      2777      2780      2783      2784
      2777      2780      2783      2785      2777      2780      2783      2786
      2778      2777      2780      2781      2778      2777      2780      2782
      2778      2777      2780      2783      2779      2777      2780      2781
      2779      2777      2780      2782      2779      2777      2780      2783
      2780      2783      2786      2787      2780      2783      2786      2788
      2780      2783      2786      2789      2781      2780      2783      2784
      2781      2780      2783      2785      2781      2780      2783      2786
      2782      2780      2783      2784      2782      2780      2783      2785
      2782      2780      2783      2786      2783      2786      2789      2790
      2783      2786      2789      2791      2783      2786      2789      2792
      2784      2783      2786      2787      2784      2783      2786      2788
      2784      2783      2786      2789      2785      2783      2786      2787
      2785      2783      2786      2788      2785      2783      2786      2789
      2786      2789      2792      2793      2786      2789      2792      2794
      2786      2789      2792      2795      2787      2786      2789      2790
      2787      2786      2789      2791      2787      2786      2789      2792
      2788      2786      2789      2790      2788      2786      2789      2791
      2788      2786      2789      2792      2789      2792      2795      2796
      2789      2792      2795      2797      2789      2792      2795      2798
      2790      2789      2792      2793      2790      2789      2792      2794
      2790      2789      2792      2795      2791      2789      2792      2793
      2791      2789      2792      2794      2791      2789      2792      2795
      2792      2795      2798      2799      2792      2795      2798      2800
      2792      2795      2798      2801      2793      2792      2795      2796
      2793      2792      2795      2797      2793      2792      2795      2798
      2794      2792      2795      2796      2794      2792      2795      2797
      2794      2792      2795      2798      2795      2798      2801      2802
      2795      2798      2801      2803      2795      2798      2801      2804
      2796      2795      2798      2799      2796      2795      2798      2800
      2796      2795      2798      2801      2797      2795      2798      2799
      2797      2795      2798      2800      2797      2795      2798      2801
      2798      2801      2804      2805      2798      2801      2804      2806
      2798      2801      2804      2807      2799      2798      2801      2802
      2799      2798      2801      2803      2799      2798      2801      2804
      2800      2798      2801      2802      2800      2798      2801      2803
      2800      2798      2801      2804      2801      2804      2807      2808
      2801      2804      2807      2809      2801      2804      2807      2810
      2802      2801      2804      2805      2802      2801      2804      2806
      2802      2801      2804      2807      2803      2801      2804      2805
      2803      2801      2804      2806      2803      2801      2804      2807
      2805      2804      2807      2808      2805      2804      2807      2809
      2805      2804      2807      2810      2806      2804      2807      2808
      2806      2804      2807      2809      2806      2804      2807      2810
      2811      2816      2818      2819      2811      2816      2820      2821
      2811      2816      2820      2822      2811      2816      2820      2827
      2812      2811      2814      2815      2812      2811      2816      2817
      2812      2811      2816      2818      2812      2811      2816      2820
      2813      2811      2814      2815      2813      2811      2816      2817
      2813      2811      2816      2818      2813      2811      2816      2820
      2814      2811      2816      2817      2814      2811      2816      2818
      2814      2811      2816      2820      2815      2814      2811      2816
      2816      2820      2827      2823      2817      2816      2818      2819
      2817      2816      2820      2821      2817      2816      2820      2822
      2817      2816      2820      2827      2818      2816      2820      2821
      2818      2816      2820      2822      2818      2816      2820      2827
      2819      2818      2816      2820      2820      2827      2823      2824
      2820      2827      2823      2825      2820      2827      2823      2826
      2821      2820      2827      2823      2822      2820      2827      2823
      2823      2826      2828      2829      2823      2826      2828      2830
      2823      2826      2828      2831      2824      2823      2826      2828
      2825      2823      2826      2828      2826      2828      2831      2832
      2826      2828      2831      2833      2826      2828      2831      2839
      2827      2823      2826      2828      2828      2831      2833      2834
      2828      2831      2839      2840      2828      2831      2839      2841
      2828      2831      2839      2842      2829      2828      2831      2832
      2829      2828      2831      2833      2829      2828      2831      2839
      2830      2828      2831      2832      2830      2828      2831      2833
      2830      2828      2831      2839      2831      2833      2834      2835
      2831      2833      2834      2836      2831      2839      2842      2843
      2832      2831      2833      2834      2832      2831      2839      2840
      2832      2831      2839      2841      2832      2831      2839      2842
      2833      2831      2839      2840      2833      2831      2839      2841
      2833      2831      2839      2842      2833      2834      2836      2837
      2833      2834      2836      2838      2833      2834      2836      2848
      2834      2833      2831      2839      2834      2836      2848      2849
      2834      2836      2848      2850      2834      2836      2848      2851
      2835      2834      2836      2837      2835      2834      2836      2838
      2835      2834      2836      2848      2836      2848      2851      2852
      2836      2848      2851      2853      2836      2848      2851      2854
      2837      2836      2848      2849      2837      2836      2848      2850
      2837      2836      2848      2851      2838      2836      2848      2849
      2838      2836      2848      2850      2838      2836      2848      2851
      2839      2842      2843      2844      2839      2842      2843      2845
      2840      2839      2842      2843      2841      2839      2842      2843
      2842      2843      2845      2846      2842      2843      2845      2847
      2842      2843      2845      2889      2843      2845      2889      2890
      2843      2845      2889      2891      2843      2845      2889      2892
      2844      2843      2845      2846      2844      2843      2845      2847
      2844      2843      2845      2889      2845      2889      2892      2893
      2845      2889      2892      2894      2845      2889      2892      2895
      2846      2845      2889      2890      2846      2845      2889      2891
      2846      2845      2889      2892      2847      2845      2889      2890
      2847      2845      2889      2891      2847      2845      2889      2892
      2848      2851      2854      2855      2848      2851      2854      2856
      2848      2851      2854      2857      2849      2848      2851      2852
      2849      2848      2851      2853      2849      2848      2851      2854
      2850      2848      2851      2852      2850      2848      2851      2853
      2850      2848      2851      2854      2851      2854      2857      2858
      2851      2854      2857      2859      2851      2854      2857      2860
      2852      2851      2854      2855      2852      2851      2854      2856
      2852      2851      2854      2857      2853      2851      2854      2855
      2853      2851      2854      2856      2853      2851      2854      2857
      2854      2857      2860      2861      2854      2857      2860      2862
      2854      2857      2860      2863      2855      2854      2857      2858
      2855      2854      2857      2859      2855      2854      2857      2860
      2856      2854      2857      2858      2856      2854      2857      2859
      2856      2854      2857      2860      2857      2860      2863      2864
      2857      2860      2863      2865      2857      2860      2863      2866
      2858      2857      2860      2861      2858      2857      2860      2862
      2858      2857      2860      2863      2859      2857      2860      2861
      2859      2857      2860      2862      2859      2857      2860      2863
      2860      2863      2866      2867      2860      2863      2866      2868
      2861      2860      2863      2864      2861      2860      2863      2865
      2861      2860      2863      2866      2862      2860      2863      2864
      2862      2860      2863      2865      2862      2860      2863      2866
      2863      2866      2868      2869      2863      2866      2868      2870
      2864      2863      2866      2867      2864      2863      2866      2868
      2865      2863      2866      2867      2865      2863      2866      2868
      2866      2868      2870      2871      2866      2868      2870      2872
      2866      2868      2870      2873      2867      2866      2868      2869
      2867      2866      2868      2870      2868      2870      2873      2874
      2868      2870      2873      2875      2868      2870      2873      2876
      2869      2868      2870      2871      2869      2868      2870      2872
      2869      2868      2870      2873      2870      2873      2876      2877
      2870      2873      2876      2878      2870      2873      2876      2879
      2871      2870      2873      2874      2871      2870      2873      2875
      2871      2870      2873      2876      2872      2870      2873      2874
      2872      2870      2873      2875      2872      2870      2873      2876
      2873      2876      2879      2880      2873      2876      2879      2881
      2873      2876      2879      2882      2874      2873      2876      2877
      2874      2873      2876      2878      2874      2873      2876      2879
      2875      2873      2876      2877      2875      2873      2876      2878
      2875      2873      2876      2879      2876      2879      2882      2883
      2876      2879      2882      2884      2876      2879      2882      2885
      2877      2876      2879      2880      2877      2876      2879      2881
      2877      2876      2879      2882      2878      2876      2879      2880
      2878      2876      2879      2881      2878      2876      2879      2882
      2879      2882      2885      2886      2879      2882      2885      2887
      2879      2882      2885      2888      2880      2879      2882      2883
      2880      2879      2882      2884      2880      2879      2882      2885
      2881      2879      2882      2883      2881      2879      2882      2884
      2881      2879      2882      2885      2883      2882      2885      2886
      2883      2882      2885      2887      2883      2882      2885      2888
      2884      2882      2885      2886      2884      2882      2885      2887
      2884      2882      2885      2888      2889      2892      2895      2896
      2889      2892      2895      2897      2889      2892      2895      2898
      2890      2889      2892      2893      2890      2889      2892      2894
      2890      2889      2892      2895      2891      2889      2892      2893
      2891      2889      2892      2894      2891      2889      2892      2895
      2892      2895      2898      2899      2892      2895      2898      2900
      2892      2895      2898      2901      2893      2892      2895      2896
      2893      2892      2895      2897      2893      2892      2895      2898
      2894      2892      2895      2896      2894      2892      2895      2897
      2894      2892      2895      2898      2895      2898      2901      2902
      2895      2898      2901      2903      2895      2898      2901      2904
      2896      2895      2898      2899      2896      2895      2898      2900
      2896      2895      2898      2901      2897      2895      2898      2899
      2897      2895      2898      2900      2897      2895      2898      2901
      2898      2901      2904      2905      2898      2901      2904      2906
      2898      2901      2904      2907      2899      2898      2901      2902
      2899      2898      2901      2903      2899      2898      2901      2904
      2900      2898      2901      2902      2900      2898      2901      2903
      2900      2898      2901      2904      2901      2904      2907      2908
      2901      2904      2907      2909      2901      2904      2907      2910
      2902      2901      2904      2905      2902      2901      2904      2906
      2902      2901      2904      2907      2903      2901      2904      2905
      2903      2901      2904      2906      2903      2901      2904      2907
      2904      2907      2910      2911      2904      2907      2910      2912
      2904      2907      2910      2913      2905      2904      2907      2908
      2905      2904      2907      2909      2905      2904      2907      2910
      2906      2904      2907      2908      2906      2904      2907      2909
      2906      2904      2907      2910      2907      2910      2913      2914
      2907      2910      2913      2915      2907      2910      2913      2916
      2908      2907      2910      2911      2908      2907      2910      2912
      2908      2907      2910      2913      2909      2907      2910      2911
      2909      2907      2910      2912      2909      2907      2910      2913
      2910      2913      2916      2917      2910      2913      2916      2918
      2910      2913      2916      2919      2911      2910      2913      2914
      2911      2910      2913      2915      2911      2910      2913      2916
      2912      2910      2913      2914      2912      2910      2913      2915
      2912      2910      2913      2916      2913      2916      2919      2920
      2913      2916      2919      2921      2913      2916      2919      2922
      2914      2913      2916      2917      2914      2913      2916      2918
      2914      2913      2916      2919      2915      2913      2916      2917
      2915      2913      2916      2918      2915      2913      2916      2919
      2916      2919      2922      2923      2916      2919      2922      2924
      2916      2919      2922      2925      2917      2916      2919      2920
      2917      2916      2919      2921      2917      2916      2919      2922
      2918      2916      2919      2920      2918      2916      2919      2921
      2918      2916      2919      2922      2919      2922      2925      2926
      2919      2922      2925      2927      2919      2922      2925      2928
      2920      2919      2922      2923      2920      2919      2922      2924
      2920      2919      2922      2925      2921      2919      2922      2923
      2921      2919      2922      2924      2921      2919      2922      2925
      2922      2925      2928      2929      2922      2925      2928      2930
      2922      2925      2928      2931      2923      2922      2925      2926
      2923      2922      2925      2927      2923      2922      2925      2928
      2924      2922      2925      2926      2924      2922      2925      2927
      2924      2922      2925      2928      2926      2925      2928      2929
      2926      2925      2928      2930      2926      2925      2928      2931
      2927      2925      2928      2929      2927      2925      2928      2930
      2927      2925      2928      2931      2932      2936      2939      2940
      2932      2936      2939      2941      2932      2936      2939      2946
      2933      2932      2936      2937      2933      2932      2936      2938
      2933      2932      2936      2939      2934      2932      2936      2937
      2934      2932      2936      2938      2934      2932      2936      2939
      2935      2932      2936      2937      2935      2932      2936      2938
      2935      2932      2936      2939      2936      2939      2946      2942
      2937      2936      2939      2940      2937      2936      2939      2941
      2937      2936      2939      2946      2938      2936      2939      2940
      2938      2936      2939      2941      2938      2936      2939      2946
      2939      2946      2942      2943      2939      2946      2942      2944
      2939      2946      2942      2945      2940      2939      2946      2942
      2941      2939      2946      2942      2942      2945      2947      2948
      2942      2945      2947      2949      2942      2945      2947      2950
      2943      2942      2945      2947      2944      2942      2945      2947
      2945      2947      2950      2951      2945      2947      2950      2952
      2945      2947      2950      2958      2946      2942      2945      2947
      2947      2950      2952      2953      2947      2950      2958      2959
      2947      2950      2958      2960      2947      2950      2958      2961
      2948      2947      2950      2951      2948      2947      2950      2952
      2948      2947      2950      2958      2949      2947      2950      2951
      2949      2947      2950      2952      2949      2947      2950      2958
      2950      2952      2953      2954      2950      2952      2953      2955
      2950      2958      2961      2962      2951      2950      2952      2953
      2951      2950      2958      2959      2951      2950      2958      2960
      2951      2950      2958      2961      2952      2950      2958      2959
      2952      2950      2958      2960      2952      2950      2958      2961
      2952      2953      2955      2956      2952      2953      2955      2957
      2952      2953      2955      2967      2953      2952      2950      2958
      2953      2955      2967      2968      2953      2955      2967      2969
      2953      2955      2967      2970      2954      2953      2955      2956
      2954      2953      2955      2957      2954      2953      2955      2967
      2955      2967      2970      2971      2955      2967      2970      2972
      2955      2967      2970      2973      2956      2955      2967      2968
      2956      2955      2967      2969      2956      2955      2967      2970
      2957      2955      2967      2968      2957      2955      2967      2969
      2957      2955      2967      2970      2958      2961      2962      2963
      2958      2961      2962      2964      2959      2958      2961      2962
      2960      2958      2961      2962      2961      2962      2964      2965
      2961      2962      2964      2966      2961      2962      2964      3011
      2962      2964      3011      3012      2962      2964      3011      3013
      2962      2964      3011      3014      2963      2962      2964      2965
      2963      2962      2964      2966      2963      2962      2964      3011
      2964      3011      3014      3015      2964      3011      3014      3016
      2964      3011      3014      3017      2965      2964      3011      3012
      2965      2964      3011      3013      2965      2964      3011      3014
      2966      2964      3011      3012      2966      2964      3011      3013
      2966      2964      3011      3014      2967      2970      2973      2974
      2967      2970      2973      2975      2967      2970      2973      2976
      2968      2967      2970      2971      2968      2967      2970      2972
      2968      2967      2970      2973      2969      2967      2970      2971
      2969      2967      2970      2972      2969      2967      2970      2973
      2970      2973      2976      2977      2970      2973      2976      2978
      2970      2973      2976      2979      2971      2970      2973      2974
      2971      2970      2973      2975      2971      2970      2973      2976
      2972      2970      2973      2974      2972      2970      2973      2975
      2972      2970      2973      2976      2973      2976      2979      2980
      2973      2976      2979      2981      2973      2976      2979      2982
      2974      2973      2976      2977      2974      2973      2976      2978
      2974      2973      2976      2979      2975      2973      2976      2977
      2975      2973      2976      2978      2975      2973      2976      2979
      2976      2979      2982      2983      2976      2979      2982      2984
      2976      2979      2982      2985      2977      2976      2979      2980
      2977      2976      2979      2981      2977      2976      2979      2982
      2978      2976      2979      2980      2978      2976      2979      2981
      2978      2976      2979      2982      2979      2982      2985      2986
      2979      2982      2985      2987      2979      2982      2985      2990
      2980      2979      2982      2983      2980      2979      2982      2984
      2980      2979      2982      2985      2981      2979      2982      2983
      2981      2979      2982      2984      2981      2979      2982      2985
      2982      2985      2987      2988      2982      2985      2987      2989
      2982      2985      2987      2990      2982      2985      2990      2987
      2982      2985      2990      2991      2982      2985      2990      2992
      2983      2982      2985      2986      2983      2982      2985      2987
      2983      2982      2985      2990      2984      2982      2985      2986
      2984      2982      2985      2987      2984      2982      2985      2990
      2985      2987      2990      2991      2985      2987      2990      2992
      2985      2990      2987      2988      2985      2990      2987      2989
      2985      2990      2992      2993      2985      2990      2992      2994
      2985      2990      2992      2995      2986      2985      2987      2988
      2986      2985      2987      2989      2986      2985      2987      2990
      2986      2985      2990      2987      2986      2985      2990      2991
      2986      2985      2990      2992      2987      2985      2990      2991
      2987      2985      2990      2992      2987      2990      2992      2993
      2987      2990      2992      2994      2987      2990      2992      2995
      2988      2987      2985      2990      2988      2987      2990      2991
      2988      2987      2990      2992      2989      2987      2985      2990
      2989      2987      2990      2991      2989      2987      2990      2992
      2990      2992      2995      2996      2990      2992      2995      2997
      2990      2992      2995      2998      2991      2990      2992      2993
      2991      2990      2992      2994      2991      2990      2992      2995
      2992      2995      2998      2999      2992      2995      2998      3000
      2992      2995      2998      3001      2993      2992      2995      2996
      2993      2992      2995      2997      2993      2992      2995      2998
      2994      2992      2995      2996      2994      2992      2995      2997
      2994      2992      2995      2998      2995      2998      3001      3002
      2995      2998      3001      3003      2995      2998      3001      3004
      2996      2995      2998      2999      2996      2995      2998      3000
      2996      2995      2998      3001      2997      2995      2998      2999
      2997      2995      2998      3000      2997      2995      2998      3001
      2998      3001      3004      3005      2998      3001      3004      3006
      2998      3001      3004      3007      2999      2998      3001      3002
      2999      2998      3001      3003      2999      2998      3001      3004
      3000      2998      3001      3002      3000      2998      3001      3003
      3000      2998      3001      3004      3001      3004      3007      3008
      3001      3004      3007      3009      3001      3004      3007      3010
      3002      3001      3004      3005      3002      3001      3004      3006
      3002      3001      3004      3007      3003      3001      3004      3005
      3003      3001      3004      3006      3003      3001      3004      3007
      3005      3004      3007      3008      3005      3004      3007      3009
      3005      3004      3007      3010      3006      3004      3007      3008
      3006      3004      3007      3009      3006      3004      3007      3010
      3011      3014      3017      3018      3011      3014      3017      3019
      3011      3014      3017      3020      3012      3011      3014      3015
      3012      3011      3014      3016      3012      3011      3014      3017
      3013      3011      3014      3015      3013      3011      3014      3016
      3013      3011      3014      3017      3014      3017      3020      3021
      3014      3017      3020      3022      3014      3017      3020      3023
      3015      3014      3017      3018      3015      3014      3017      3019
      3015      3014      3017      3020      3016      3014      3017      3018
      3016      3014      3017      3019      3016      3014      3017      3020
      3017      3020      3023      3024      3017      3020      3023      3025
      3017      3020      3023      3026      3018      3017      3020      3021
      3018      3017      3020      3022      3018      3017      3020      3023
      3019      3017      3020      3021      3019      3017      3020      3022
      3019      3017      3020      3023      3020      3023      3026      3027
      3020      3023      3026      3028      3020      3023      3026      3029
      3021      3020      3023      3024      3021      3020      3023      3025
      3021      3020      3023      3026      3022      3020      3023      3024
      3022      3020      3023      3025      3022      3020      3023      3026
      3023      3026      3029      3030      3023      3026      3029      3031
      3023      3026      3029      3032      3024      3023      3026      3027
      3024      3023      3026      3028      3024      3023      3026      3029
      3025      3023      3026      3027      3025      3023      3026      3028
      3025      3023      3026      3029      3026      3029      3032      3033
      3026      3029      3032      3034      3026      3029      3032      3035
      3027      3026      3029      3030      3027      3026      3029      3031
      3027      3026      3029      3032      3028      3026      3029      3030
      3028      3026      3029      3031      3028      3026      3029      3032
      3029      3032      3035      3036      3029      3032      3035      3037
      3029      3032      3035      3038      3030      3029      3032      3033
      3030      3029      3032      3034      3030      3029      3032      3035
      3031      3029      3032      3033      3031      3029      3032      3034
      3031      3029      3032      3035      3032      3035      3038      3039
      3032      3035      3038      3040      3032      3035      3038      3041
      3033      3032      3035      3036      3033      3032      3035      3037
      3033      3032      3035      3038      3034      3032      3035      3036
      3034      3032      3035      3037      3034      3032      3035      3038
      3035      3038      3041      3042      3035      3038      3041      3043
      3035      3038      3041      3044      3036      3035      3038      3039
      3036      3035      3038      3040      3036      3035      3038      3041
      3037      3035      3038      3039      3037      3035      3038      3040
      3037      3035      3038      3041      3038      3041      3044      3045
      3038      3041      3044      3046      3038      3041      3044      3047
      3039      3038      3041      3042      3039      3038      3041      3043
      3039      3038      3041      3044      3040      3038      3041      3042
      3040      3038      3041      3043      3040      3038      3041      3044
      3041      3044      3047      3048      3041      3044      3047      3049
      3041      3044      3047      3050      3042      3041      3044      3045
      3042      3041      3044      3046      3042      3041      3044      3047
      3043      3041      3044      3045      3043      3041      3044      3046
      3043      3041      3044      3047      3044      3047      3050      3051
      3044      3047      3050      3052      3044      3047      3050      3053
      3045      3044      3047      3048      3045      3044      3047      3049
      3045      3044      3047      3050      3046      3044      3047      3048
      3046      3044      3047      3049      3046      3044      3047      3050
      3048      3047      3050      3051      3048      3047      3050      3052
      3048      3047      3050      3053      3049      3047      3050      3051
      3049      3047      3050      3052      3049      3047      3050      3053
      3054      3059      3061      3062      3054      3059      3063      3064
      3054      3059      3063      3065      3054      3059      3063      3070
      3055      3054      3057      3058      3055      3054      3059      3060
      3055      3054      3059      3061      3055      3054      3059      3063
      3056      3054      3057      3058      3056      3054      3059      3060
      3056      3054      3059      3061      3056      3054      3059      3063
      3057      3054      3059      3060      3057      3054      3059      3061
      3057      3054      3059      3063      3058      3057      3054      3059
      3059      3063      3070      3066      3060      3059      3061      3062
      3060      3059      3063      3064      3060      3059      3063      3065
      3060      3059      3063      3070      3061      3059      3063      3064
      3061      3059      3063      3065      3061      3059      3063      3070
      3062      3061      3059      3063      3063      3070      3066      3067
      3063      3070      3066      3068      3063      3070      3066      3069
      3064      3063      3070      3066      3065      3063      3070      3066
      3066      3069      3071      3072      3066      3069      3071      3073
      3066      3069      3071      3074      3067      3066      3069      3071
      3068      3066      3069      3071      3069      3071      3074      3075
      3069      3071      3074      3076      3069      3071      3074      3082
      3070      3066      3069      3071      3071      3074      3076      3077
      3071      3074      3082      3083      3071      3074      3082      3084
      3071      3074      3082      3085      3072      3071      3074      3075
      3072      3071      3074      3076      3072      3071      3074      3082
      3073      3071      3074      3075      3073      3071      3074      3076
      3073      3071      3074      3082      3074      3076      3077      3078
      3074      3076      3077      3079      3074      3082      3085      3086
      3075      3074      3076      3077      3075      3074      3082      3083
      3075      3074      3082      3084      3075      3074      3082      3085
      3076      3074      3082      3083      3076      3074      3082      3084
      3076      3074      3082      3085      3076      3077      3079      3080
      3076      3077      3079      3081      3076      3077      3079      3091
      3077      3076      3074      3082      3077      3079      3091      3092
      3077      3079      3091      3093      3077      3079      3091      3094
      3078      3077      3079      3080      3078      3077      3079      3081
      3078      3077      3079      3091      3079      3091      3094      3095
      3079      3091      3094      3096      3079      3091      3094      3097
      3080      3079      3091      3092      3080      3079      3091      3093
      3080      3079      3091      3094      3081      3079      3091      3092
      3081      3079      3091      3093      3081      3079      3091      3094
      3082      3085      3086      3087      3082      3085      3086      3088
      3083      3082      3085      3086      3084      3082      3085      3086
      3085      3086      3088      3089      3085      3086      3088      3090
      3085      3086      3088      3135      3086      3088      3135      3136
      3086      3088      3135      3137      3086      3088      3135      3138
      3087      3086      3088      3089      3087      3086      3088      3090
      3087      3086      3088      3135      3088      3135      3138      3139
      3088      3135      3138      3140      3088      3135      3138      3141
      3089      3088      3135      3136      3089      3088      3135      3137
      3089      3088      3135      3138      3090      3088      3135      3136
      3090      3088      3135      3137      3090      3088      3135      3138
      3091      3094      3097      3098      3091      3094      3097      3099
      3091      3094      3097      3100      3092      3091      3094      3095
      3092      3091      3094      3096      3092      3091      3094      3097
      3093      3091      3094      3095      3093      3091      3094      3096
      3093      3091      3094      3097      3094      3097      3100      3101
      3094      3097      3100      3102      3094      3097      3100      3103
      3095      3094      3097      3098      3095      3094      3097      3099
      3095      3094      3097      3100      3096      3094      3097      3098
      3096      3094      3097      3099      3096      3094      3097      3100
      3097      3100      3103      3104      3097      3100      3103      3105
      3097      3100      3103      3106      3098      3097      3100      3101
      3098      3097      3100      3102      3098      3097      3100      3103
      3099      3097      3100      3101      3099      3097      3100      3102
      3099      3097      3100      3103      3100      3103      3106      3107
      3100      3103      3106      3108      3100      3103      3106      3109
      3101      3100      3103      3104      3101      3100      3103      3105
      3101      3100      3103      3106      3102      3100      3103      3104
      3102      3100      3103      3105      3102      3100      3103      3106
      3103      3106      3109      3110      3103      3106      3109      3111
      3103      3106      3109      3114      3104      3103      3106      3107
      3104      3103      3106      3108      3104      3103      3106      3109
      3105      3103      3106      3107      3105      3103      3106      3108
      3105      3103      3106      3109      3106      3109      3111      3112
      3106      3109      3111      3113      3106      3109      3111      3114
      3106      3109      3114      3111      3106      3109      3114      3115
      3106      3109      3114      3116      3107      3106      3109      3110
      3107      3106      3109      3111      3107      3106      3109      3114
      3108      3106      3109      3110      3108      3106      3109      3111
      3108      3106      3109      3114      3109      3111      3114      3115
      3109      3111      3114      3116      3109      3114      3111      3112
      3109      3114      3111      3113      3109      3114      3116      3117
      3109      3114      3116      3118      3109      3114      3116      3119
      3110      3109      3111      3112      3110      3109      3111      3113
      3110      3109      3111      3114      3110      3109      3114      3111
      3110      3109      3114      3115      3110      3109      3114      3116
      3111      3109      3114      3115      3111      3109      3114      3116
      3111      3114      3116      3117      3111      3114      3116      3118
      3111      3114      3116      3119      3112      3111      3109      3114
      3112      3111      3114      3115      3112      3111      3114      3116
      3113      3111      3109      3114      3113      3111      3114      3115
      3113      3111      3114      3116      3114      3116      3119      3120
      3114      3116      3119      3121      3114      3116      3119      3122
      3115      3114      3116      3117      3115      3114      3116      3118
      3115      3114      3116      3119      3116      3119      3122      3123
      3116      3119      3122      3124      3116      3119      3122      3125
      3117      3116      3119      3120      3117      3116      3119      3121
      3117      3116      3119      3122      3118      3116      3119      3120
      3118      3116      3119      3121      3118      3116      3119      3122
      3119      3122      3125      3126      3119      3122      3125      3127
      3119      3122      3125      3128      3120      3119      3122      3123
      3120      3119      3122      3124      3120      3119      3122      3125
      3121      3119      3122      3123      3121      3119      3122      3124
      3121      3119      3122      3125      3122      3125      3128      3129
      3122      3125      3128      3130      3122      3125      3128      3131
      3123      3122      3125      3126      3123      3122      3125      3127
      3123      3122      3125      3128      3124      3122      3125      3126
      3124      3122      3125      3127      3124      3122      3125      3128
      3125      3128      3131      3132      3125      3128      3131      3133
      3125      3128      3131      3134      3126      3125      3128      3129
      3126      3125      3128      3130      3126      3125      3128      3131
      3127      3125      3128      3129      3127      3125      3128      3130
      3127      3125      3128      3131      3129      3128      3131      3132
      3129      3128      3131      3133      3129      3128      3131      3134
      3130      3128      3131      3132      3130      3128      3131      3133
      3130      3128      3131      3134      3135      3138      3141      3142
      3135      3138      3141      3143      3135      3138      3141      3144
      3136      3135      3138      3139      3136      3135      3138      3140
      3136      3135      3138      3141      3137      3135      3138      3139
      3137      3135      3138      3140      3137      3135      3138      3141
      3138      3141      3144      3145      3138      3141      3144      3146
      3138      3141      3144      3147      3139      3138      3141      3142
      3139      3138      3141      3143      3139      3138      3141      3144
      3140      3138      3141      3142      3140      3138      3141      3143
      3140      3138      3141      3144      3141      3144      3147      3148
      3141      3144      3147      3149      3141      3144      3147      3150
      3142      3141      3144      3145      3142      3141      3144      3146
      3142      3141      3144      3147      3143      3141      3144      3145
      3143      3141      3144      3146      3143      3141      3144      3147
      3144      3147      3150      3151      3144      3147      3150      3152
      3144      3147      3150      3153      3145      3144      3147      3148
      3145      3144      3147      3149      3145      3144      3147      3150
      3146      3144      3147      3148      3146      3144      3147      3149
      3146      3144      3147      3150      3147      3150      3153      3154
      3147      3150      3153      3155      3147      3150      3153      3156
      3148      3147      3150      3151      3148      3147      3150      3152
      3148      3147      3150      3153      3149      3147      3150      3151
      3149      3147      3150      3152      3149      3147      3150      3153
      3150      3153      3156      3157      3150      3153      3156      3158
      3150      3153      3156      3159      3151      3150      3153      3154
      3151      3150      3153      3155      3151      3150      3153      3156
      3152      3150      3153      3154      3152      3150      3153      3155
      3152      3150      3153      3156      3153      3156      3159      3160
      3153      3156      3159      3161      3153      3156      3159      3162
      3154      3153      3156      3157      3154      3153      3156      3158
      3154      3153      3156      3159      3155      3153      3156      3157
      3155      3153      3156      3158      3155      3153      3156      3159
      3156      3159      3162      3163      3156      3159      3162      3164
      3156      3159      3162      3165      3157      3156      3159      3160
      3157      3156      3159      3161      3157      3156      3159      3162
      3158      3156      3159      3160      3158      3156      3159      3161
      3158      3156      3159      3162      3159      3162      3165      3166
      3159      3162      3165      3167      3159      3162      3165      3168
      3160      3159      3162      3163      3160      3159      3162      3164
      3160      3159      3162      3165      3161      3159      3162      3163
      3161      3159      3162      3164      3161      3159      3162      3165
      3162      3165      3168      3169      3162      3165      3168      3170
      3162      3165      3168      3171      3163      3162      3165      3166
      3163      3162      3165      3167      3163      3162      3165      3168
      3164      3162      3165      3166      3164      3162      3165      3167
      3164      3162      3165      3168      3165      3168      3171      3172
      3165      3168      3171      3173      3165      3168      3171      3174
      3166      3165      3168      3169      3166      3165      3168      3170
      3166      3165      3168      3171      3167      3165      3168      3169
      3167      3165      3168      3170      3167      3165      3168      3171
      3168      3171      3174      3175      3168      3171      3174      3176
      3168      3171      3174      3177      3169      3168      3171      3172
      3169      3168      3171      3173      3169      3168      3171      3174
      3170      3168      3171      3172      3170      3168      3171      3173
      3170      3168      3171      3174      3172      3171      3174      3175
      3172      3171      3174      3176      3172      3171      3174      3177
      3173      3171      3174      3175      3173      3171      3174      3176
      3173      3171      3174      3177      3178      3183      3185      3186
      3178      3183      3187      3188      3178      3183      3187      3189
      3178      3183      3187      3194      3179      3178      3181      3182
      3179      3178      3183      3184      3179      3178      3183      3185
      3179      3178      3183      3187      3180      3178      3181      3182
      3180      3178      3183      3184      3180      3178      3183      3185
      3180      3178      3183      3187      3181      3178      3183      3184
      3181      3178      3183      3185      3181      3178      3183      3187
      3182      3181      3178      3183      3183      3187      3194      3190
      3184      3183      3185      3186      3184      3183      3187      3188
      3184      3183      3187      3189      3184      3183      3187      3194
      3185      3183      3187      3188      3185      3183      3187      3189
      3185      3183      3187      3194      3186      3185      3183      3187
      3187      3194      3190      3191      3187      3194      3190      3192
      3187      3194      3190      3193      3188      3187      3194      3190
      3189      3187      3194      3190      3190      3193      3195      3196
      3190      3193      3195      3197      3190      3193      3195      3198
      3191      3190      3193      3195      3192      3190      3193      3195
      3193      3195      3198      3199      3193      3195      3198      3200
      3193      3195      3198      3206      3194      3190      3193      3195
      3195      3198      3200      3201      3195      3198      3206      3207
      3195      3198      3206      3208      3195      3198      3206      3209
      3196      3195      3198      3199      3196      3195      3198      3200
      3196      3195      3198      3206      3197      3195      3198      3199
      3197      3195      3198      3200      3197      3195      3198      3206
      3198      3200      3201      3202      3198      3200      3201      3203
      3198      3206      3209      3210      3199      3198      3200      3201
      3199      3198      3206      3207      3199      3198      3206      3208
      3199      3198      3206      3209      3200      3198      3206      3207
      3200      3198      3206      3208      3200      3198      3206      3209
      3200      3201      3203      3204      3200      3201      3203      3205
      3200      3201      3203      3215      3201      3200      3198      3206
      3201      3203      3215      3216      3201      3203      3215      3217
      3201      3203      3215      3218      3202      3201      3203      3204
      3202      3201      3203      3205      3202      3201      3203      3215
      3203      3215      3218      3219      3203      3215      3218      3220
      3203      3215      3218      3221      3204      3203      3215      3216
      3204      3203      3215      3217      3204      3203      3215      3218
      3205      3203      3215      3216      3205      3203      3215      3217
      3205      3203      3215      3218      3206      3209      3210      3211
      3206      3209      3210      3212      3207      3206      3209      3210
      3208      3206      3209      3210      3209      3210      3212      3213
      3209      3210      3212      3214      3209      3210      3212      3259
      3210      3212      3259      3260      3210      3212      3259      3261
      3210      3212      3259      3262      3211      3210      3212      3213
      3211      3210      3212      3214      3211      3210      3212      3259
      3212      3259      3262      3263      3212      3259      3262      3264
      3212      3259      3262      3265      3213      3212      3259      3260
      3213      3212      3259      3261      3213      3212      3259      3262
      3214      3212      3259      3260      3214      3212      3259      3261
      3214      3212      3259      3262      3215      3218      3221      3222
      3215      3218      3221      3223      3215      3218      3221      3224
      3216      3215      3218      3219      3216      3215      3218      3220
      3216      3215      3218      3221      3217      3215      3218      3219
      3217      3215      3218      3220      3217      3215      3218      3221
      3218      3221      3224      3225      3218      3221      3224      3226
      3218      3221      3224      3227      3219      3218      3221      3222
      3219      3218      3221      3223      3219      3218      3221      3224
      3220      3218      3221      3222      3220      3218      3221      3223
      3220      3218      3221      3224      3221      3224      3227      3228
      3221      3224      3227      3229      3221      3224      3227      3230
      3222      3221      3224      3225      3222      3221      3224      3226
      3222      3221      3224      3227      3223      3221      3224      3225
      3223      3221      3224      3226      3223      3221      3224      3227
      3224      3227      3230      3231      3224      3227      3230      3232
      3224      3227      3230      3233      3225      3224      3227      3228
      3225      3224      3227      3229      3225      3224      3227      3230
      3226      3224      3227      3228      3226      3224      3227      3229
      3226      3224      3227      3230      3227      3230      3233      3234
      3227      3230      3233      3235      3227      3230      3233      3238
      3228      3227      3230      3231      3228      3227      3230      3232
      3228      3227      3230      3233      3229      3227      3230      3231
      3229      3227      3230      3232      3229      3227      3230      3233
      3230      3233      3235      3236      3230      3233      3235      3237
      3230      3233      3235      3238      3230      3233      3238      3235
      3230      3233      3238      3239      3230      3233      3238      3240
      3231      3230      3233      3234      3231      3230      3233      3235
      3231      3230      3233      3238      3232      3230      3233      3234
      3232      3230      3233      3235      3232      3230      3233      3238
      3233      3235      3238      3239      3233      3235      3238      3240
      3233      3238      3235      3236      3233      3238      3235      3237
      3233      3238      3240      3241      3233      3238      3240      3242
      3233      3238      3240      3243      3234      3233      3235      3236
      3234      3233      3235      3237      3234      3233      3235      3238
      3234      3233      3238      3235      3234      3233      3238      3239
      3234      3233      3238      3240      3235      3233      3238      3239
      3235      3233      3238      3240      3235      3238      3240      3241
      3235      3238      3240      3242      3235      3238      3240      3243
      3236      3235      3233      3238      3236      3235      3238      3239
      3236      3235      3238      3240      3237      3235      3233      3238
      3237      3235      3238      3239      3237      3235      3238      3240
      3238      3240      3243      3244      3238      3240      3243      3245
      3238      3240      3243      3246      3239      3238      3240      3241
      3239      3238      3240      3242      3239      3238      3240      3243
      3240      3243      3246      3247      3240      3243      3246      3248
      3240      3243      3246      3249      3241      3240      3243      3244
      3241      3240      3243      3245      3241      3240      3243      3246
      3242      3240      3243      3244      3242      3240      3243      3245
      3242      3240      3243      3246      3243      3246      3249      3250
      3243      3246      3249      3251      3243      3246      3249      3252
      3244      3243      3246      3247      3244      3243      3246      3248
      3244      3243      3246      3249      3245      3243      3246      3247
      3245      3243      3246      3248      3245      3243      3246      3249
      3246      3249      3252      3253      3246      3249      3252      3254
      3246      3249      3252      3255      3247      3246      3249      3250
      3247      3246      3249      3251      3247      3246      3249      3252
      3248      3246      3249      3250      3248      3246      3249      3251
      3248      3246      3249      3252      3249      3252      3255      3256
      3249      3252      3255      3257      3249      3252      3255      3258
      3250      3249      3252      3253      3250      3249      3252      3254
      3250      3249      3252      3255      3251      3249      3252      3253
      3251      3249      3252      3254      3251      3249      3252      3255
      3253      3252      3255      3256      3253      3252      3255      3257
      3253      3252      3255      3258      3254      3252      3255      3256
      3254      3252      3255      3257      3254      3252      3255      3258
      3259      3262      3265      3266      3259      3262      3265      3267
      3259      3262      3265      3268      3260      3259      3262      3263
      3260      3259      3262      3264      3260      3259      3262      3265
      3261      3259      3262      3263      3261      3259      3262      3264
      3261      3259      3262      3265      3262      3265      3268      3269
      3262      3265      3268      3270      3262      3265      3268      3271
      3263      3262      3265      3266      3263      3262      3265      3267
      3263      3262      3265      3268      3264      3262      3265      3266
      3264      3262      3265      3267      3264      3262      3265      3268
      3265      3268      3271      3272      3265      3268      3271      3273
      3265      3268      3271      3274      3266      3265      3268      3269
      3266      3265      3268      3270      3266      3265      3268      3271
      3267      3265      3268      3269      3267      3265      3268      3270
      3267      3265      3268      3271      3268      3271      3274      3275
      3268      3271      3274      3276      3268      3271      3274      3277
      3269      3268      3271      3272      3269      3268      3271      3273
      3269      3268      3271      3274      3270      3268      3271      3272
      3270      3268      3271      3273      3270      3268      3271      3274
      3271      3274      3277      3278      3271      3274      3277      3279
      3271      3274      3277      3280      3272      3271      3274      3275
      3272      3271      3274      3276      3272      3271      3274      3277
      3273      3271      3274      3275      3273      3271      3274      3276
      3273      3271      3274      3277      3274      3277      3280      3281
      3274      3277      3280      3282      3274      3277      3280      3283
      3275      3274      3277      3278      3275      3274      3277      3279
      3275      3274      3277      3280      3276      3274      3277      3278
      3276      3274      3277      3279      3276      3274      3277      3280
      3277      3280      3283      3284      3277      3280      3283      3285
      3277      3280      3283      3286      3278      3277      3280      3281
      3278      3277      3280      3282      3278      3277      3280      3283
      3279      3277      3280      3281      3279      3277      3280      3282
      3279      3277      3280      3283      3280      3283      3286      3287
      3280      3283      3286      3288      3280      3283      3286      3289
      3281      3280      3283      3284      3281      3280      3283      3285
      3281      3280      3283      3286      3282      3280      3283      3284
      3282      3280      3283      3285      3282      3280      3283      3286
      3283      3286      3289      3290      3283      3286      3289      3291
      3283      3286      3289      3292      3284      3283      3286      3287
      3284      3283      3286      3288      3284      3283      3286      3289
      3285      3283      3286      3287      3285      3283      3286      3288
      3285      3283      3286      3289      3286      3289      3292      3293
      3286      3289      3292      3294      3286      3289      3292      3295
      3287      3286      3289      3290      3287      3286      3289      3291
      3287      3286      3289      3292      3288      3286      3289      3290
      3288      3286      3289      3291      3288      3286      3289      3292
      3289      3292      3295      3296      3289      3292      3295      3297
      3289      3292      3295      3298      3290      3289      3292      3293
      3290      3289      3292      3294      3290      3289      3292      3295
      3291      3289      3292      3293      3291      3289      3292      3294
      3291      3289      3292      3295      3292      3295      3298      3299
      3292      3295      3298      3300      3292      3295      3298      3301
      3293      3292      3295      3296      3293      3292      3295      3297
      3293      3292      3295      3298      3294      3292      3295      3296
      3294      3292      3295      3297      3294      3292      3295      3298
      3296      3295      3298      3299      3296      3295      3298      3300
      3296      3295      3298      3301      3297      3295      3298      3299
      3297      3295      3298      3300      3297      3295      3298      3301
      3302      3307      3309      3310      3302      3307      3311      3312
      3302      3307      3311      3313      3302      3307      3311      3318
      3303      3302      3305      3306      3303      3302      3307      3308
      3303      3302      3307      3309      3303      3302      3307      3311
      3304      3302      3305      3306      3304      3302      3307      3308
      3304      3302      3307      3309      3304      3302      3307      3311
      3305      3302      3307      3308      3305      3302      3307      3309
      3305      3302      3307      3311      3306      3305      3302      3307
      3307      3311      3318      3314      3308      3307      3309      3310
      3308      3307      3311      3312      3308      3307      3311      3313
      3308      3307      3311      3318      3309      3307      3311      3312
      3309      3307      3311      3313      3309      3307      3311      3318
      3310      3309      3307      3311      3311      3318      3314      3315
      3311      3318      3314      3316      3311      3318      3314      3317
      3312      3311      3318      3314      3313      3311      3318      3314
      3314      3317      3319      3320      3314      3317      3319      3321
      3314      3317      3319      3322      3315      3314      3317      3319
      3316      3314      3317      3319      3317      3319      3322      3323
      3317      3319      3322      3324      3317      3319      3322      3330
      3318      3314      3317      3319      3319      3322      3324      3325
      3319      3322      3330      3331      3319      3322      3330      3332
      3319      3322      3330      3333      3320      3319      3322      3323
      3320      3319      3322      3324      3320      3319      3322      3330
      3321      3319      3322      3323      3321      3319      3322      3324
      3321      3319      3322      3330      3322      3324      3325      3326
      3322      3324      3325      3327      3322      3330      3333      3334
      3323      3322      3324      3325      3323      3322      3330      3331
      3323      3322      3330      3332      3323      3322      3330      3333
      3324      3322      3330      3331      3324      3322      3330      3332
      3324      3322      3330      3333      3324      3325      3327      3328
      3324      3325      3327      3329      3324      3325      3327      3339
      3325      3324      3322      3330      3325      3327      3339      3340
      3325      3327      3339      3341      3325      3327      3339      3342
      3326      3325      3327      3328      3326      3325      3327      3329
      3326      3325      3327      3339      3327      3339      3342      3343
      3327      3339      3342      3344      3327      3339      3342      3345
      3328      3327      3339      3340      3328      3327      3339      3341
      3328      3327      3339      3342      3329      3327      3339      3340
      3329      3327      3339      3341      3329      3327      3339      3342
      3330      3333      3334      3335      3330      3333      3334      3336
      3331      3330      3333      3334      3332      3330      3333      3334
      3333      3334      3336      3337      3333      3334      3336      3338
      3333      3334      3336      3380      3334      3336      3380      3381
      3334      3336      3380      3382      3334      3336      3380      3383
      3335      3334      3336      3337      3335      3334      3336      3338
      3335      3334      3336      3380      3336      3380      3383      3384
      3336      3380      3383      3385      3336      3380      3383      3386
      3337      3336      3380      3381      3337      3336      3380      3382
      3337      3336      3380      3383      3338      3336      3380      3381
      3338      3336      3380      3382      3338      3336      3380      3383
      3339      3342      3345      3346      3339      3342      3345      3347
      3339      3342      3345      3348      3340      3339      3342      3343
      3340      3339      3342      3344      3340      3339      3342      3345
      3341      3339      3342      3343      3341      3339      3342      3344
      3341      3339      3342      3345      3342      3345      3348      3349
      3342      3345      3348      3350      3342      3345      3348      3351
      3343      3342      3345      3346      3343      3342      3345      3347
      3343      3342      3345      3348      3344      3342      3345      3346
      3344      3342      3345      3347      3344      3342      3345      3348
      3345      3348      3351      3352      3345      3348      3351      3353
      3345      3348      3351      3354      3346      3345      3348      3349
      3346      3345      3348      3350      3346      3345      3348      3351
      3347      3345      3348      3349      3347      3345      3348      3350
      3347      3345      3348      3351      3348      3351      3354      3355
      3348      3351      3354      3356      3348      3351      3354      3357
      3349      3348      3351      3352      3349      3348      3351      3353
      3349      3348      3351      3354      3350      3348      3351      3352
      3350      3348      3351      3353      3350      3348      3351      3354
      3351      3354      3357      3358      3351      3354      3357      3359
      3352      3351      3354      3355      3352      3351      3354      3356
      3352      3351      3354      3357      3353      3351      3354      3355
      3353      3351      3354      3356      3353      3351      3354      3357
      3354      3357      3359      3360      3354      3357      3359      3361
      3355      3354      3357      3358      3355      3354      3357      3359
      3356      3354      3357      3358      3356      3354      3357      3359
      3357      3359      3361      3362      3357      3359      3361      3363
      3357      3359      3361      3364      3358      3357      3359      3360
      3358      3357      3359      3361      3359      3361      3364      3365
      3359      3361      3364      3366      3359      3361      3364      3367
      3360      3359      3361      3362      3360      3359      3361      3363
      3360      3359      3361      3364      3361      3364      3367      3368
      3361      3364      3367      3369      3361      3364      3367      3370
      3362      3361      3364      3365      3362      3361      3364      3366
      3362      3361      3364      3367      3363      3361      3364      3365
      3363      3361      3364      3366      3363      3361      3364      3367
      3364      3367      3370      3371      3364      3367      3370      3372
      3364      3367      3370      3373      3365      3364      3367      3368
      3365      3364      3367      3369      3365      3364      3367      3370
      3366      3364      3367      3368      3366      3364      3367      3369
      3366      3364      3367      3370      3367      3370      3373      3374
      3367      3370      3373      3375      3367      3370      3373      3376
      3368      3367      3370      3371      3368      3367      3370      3372
      3368      3367      3370      3373      3369      3367      3370      3371
      3369      3367      3370      3372      3369      3367      3370      3373
      3370      3373      3376      3377      3370      3373      3376      3378
      3370      3373      3376      3379      3371      3370      3373      3374
      3371      3370      3373      3375      3371      3370      3373      3376
      3372      3370      3373      3374      3372      3370      3373      3375
      3372      3370      3373      3376      3374      3373      3376      3377
      3374      3373      3376      3378      3374      3373      3376      3379
      3375      3373      3376      3377      3375      3373      3376      3378
      3375      3373      3376      3379      3380      3383      3386      3387
      3380      3383      3386      3388      3380      3383      3386      3389
      3381      3380      3383      3384      3381      3380      3383      3385
      3381      3380      3383      3386      3382      3380      3383      3384
      3382      3380      3383      3385      3382      3380      3383      3386
      3383      3386      3389      3390      3383      3386      3389      3391
      3383      3386      3389      3392      3384      3383      3386      3387
      3384      3383      3386      3388      3384      3383      3386      3389
      3385      3383      3386      3387      3385      3383      3386      3388
      3385      3383      3386      3389      3386      3389      3392      3393
      3386      3389      3392      3394      3386      3389      3392      3395
      3387      3386      3389      3390      3387      3386      3389      3391
      3387      3386      3389      3392      3388      3386      3389      3390
      3388      3386      3389      3391      3388      3386      3389      3392
      3389      3392      3395      3396      3389      3392      3395      3397
      3389      3392      3395      3398      3390      3389      3392      3393
      3390      3389      3392      3394      3390      3389      3392      3395
      3391      3389      3392      3393      3391      3389      3392      3394
      3391      3389      3392      3395      3392      3395      3398      3399
      3392      3395      3398      3400      3392      3395      3398      3401
      3393      3392      3395      3396      3393      3392      3395      3397
      3393      3392      3395      3398      3394      3392      3395      3396
      3394      3392      3395      3397      3394      3392      3395      3398
      3395      3398      3401      3402      3395      3398      3401      3403
      3395      3398      3401      3404      3396      3395      3398      3399
      3396      3395      3398      3400      3396      3395      3398      3401
      3397      3395      3398      3399      3397      3395      3398      3400
      3397      3395      3398      3401      3398      3401      3404      3405
      3398      3401      3404      3406      3398      3401      3404      3407
      3399      3398      3401      3402      3399      3398      3401      3403
      3399      3398      3401      3404      3400      3398      3401      3402
      3400      3398      3401      3403      3400      3398      3401      3404
      3401      3404      3407      3408      3401      3404      3407      3409
      3401      3404      3407      3410      3402      3401      3404      3405
      3402      3401      3404      3406      3402      3401      3404      3407
      3403      3401      3404      3405      3403      3401      3404      3406
      3403      3401      3404      3407      3404      3407      3410      3411
      3404      3407      3410      3412      3404      3407      3410      3413
      3405      3404      3407      3408      3405      3404      3407      3409
      3405      3404      3407      3410      3406      3404      3407      3408
      3406      3404      3407      3409      3406      3404      3407      3410
      3407      3410      3413      3414      3407      3410      3413      3415
      3407      3410      3413      3416      3408      3407      3410      3411
      3408      3407      3410      3412      3408      3407      3410      3413
      3409      3407      3410      3411      3409      3407      3410      3412
      3409      3407      3410      3413      3410      3413      3416      3417
      3410      3413      3416      3418      3410      3413      3416      3419
      3411      3410      3413      3414      3411      3410      3413      3415
      3411      3410      3413      3416      3412      3410      3413      3414
      3412      3410      3413      3415      3412      3410      3413      3416
      3413      3416      3419      3420      3413      3416      3419      3421
      3413      3416      3419      3422      3414      3413      3416      3417
      3414      3413      3416      3418      3414      3413      3416      3419
      3415      3413      3416      3417      3415      3413      3416      3418
      3415      3413      3416      3419      3417      3416      3419      3420
      3417      3416      3419      3421      3417      3416      3419      3422
      3418      3416      3419      3420      3418      3416      3419      3421
      3418      3416      3419      3422      3423      3427      3430      3431
      3423      3427      3430      3432      3423      3427      3430      3437
      3424      3423      3427      3428      3424      3423      3427      3429
      3424      3423      3427      3430      3425      3423      3427      3428
      3425      3423      3427      3429      3425      3423      3427      3430
      3426      3423      3427      3428      3426      3423      3427      3429
      3426      3423      3427      3430      3427      3430      3437      3433
      3428      3427      3430      3431      3428      3427      3430      3432
      3428      3427      3430      3437      3429      3427      3430      3431
      3429      3427      3430      3432      3429      3427      3430      3437
      3430      3437      3433      3434      3430      3437      3433      3435
      3430      3437      3433      3436      3431      3430      3437      3433
      3432      3430      3437      3433      3433      3436      3438      3439
      3433      3436      3438      3440      3433      3436      3438      3441
      3434      3433      3436      3438      3435      3433      3436      3438
      3436      3438      3441      3442      3436      3438      3441      3443
      3436      3438      3441      3449      3437      3433      3436      3438
      3438      3441      3443      3444      3438      3441      3449      3450
      3438      3441      3449      3451      3438      3441      3449      3452
      3439      3438      3441      3442      3439      3438      3441      3443
      3439      3438      3441      3449      3440      3438      3441      3442
      3440      3438      3441      3443      3440      3438      3441      3449
      3441      3443      3444      3445      3441      3443      3444      3446
      3441      3449      3452      3453      3442      3441      3443      3444
      3442      3441      3449      3450      3442      3441      3449      3451
      3442      3441      3449      3452      3443      3441      3449      3450
      3443      3441      3449      3451      3443      3441      3449      3452
      3443      3444      3446      3447      3443      3444      3446      3448
      3443      3444      3446      3458      3444      3443      3441      3449
      3444      3446      3458      3459      3444      3446      3458      3460
      3444      3446      3458      3461      3445      3444      3446      3447
      3445      3444      3446      3448      3445      3444      3446      3458
      3446      3458      3461      3462      3446      3458      3461      3463
      3446      3458      3461      3464      3447      3446      3458      3459
      3447      3446      3458      3460      3447      3446      3458      3461
      3448      3446      3458      3459      3448      3446      3458      3460
      3448      3446      3458      3461      3449      3452      3453      3454
      3449      3452      3453      3455      3450      3449      3452      3453
      3451      3449      3452      3453      3452      3453      3455      3456
      3452      3453      3455      3457      3452      3453      3455      3502
      3453      3455      3502      3503      3453      3455      3502      3504
      3453      3455      3502      3505      3454      3453      3455      3456
      3454      3453      3455      3457      3454      3453      3455      3502
      3455      3502      3505      3506      3455      3502      3505      3507
      3455      3502      3505      3508      3456      3455      3502      3503
      3456      3455      3502      3504      3456      3455      3502      3505
      3457      3455      3502      3503      3457      3455      3502      3504
      3457      3455      3502      3505      3458      3461      3464      3465
      3458      3461      3464      3466      3458      3461      3464      3467
      3459      3458      3461      3462      3459      3458      3461      3463
      3459      3458      3461      3464      3460      3458      3461      3462
      3460      3458      3461      3463      3460      3458      3461      3464
      3461      3464      3467      3468      3461      3464      3467      3469
      3461      3464      3467      3470      3462      3461      3464      3465
      3462      3461      3464      3466      3462      3461      3464      3467
      3463      3461      3464      3465      3463      3461      3464      3466
      3463      3461      3464      3467      3464      3467      3470      3471
      3464      3467      3470      3472      3464      3467      3470      3473
      3465      3464      3467      3468      3465      3464      3467      3469
      3465      3464      3467      3470      3466      3464      3467      3468
      3466      3464      3467      3469      3466      3464      3467      3470
      3467      3470      3473      3474      3467      3470      3473      3475
      3467      3470      3473      3476      3468      3467      3470      3471
      3468      3467      3470      3472      3468      3467      3470      3473
      3469      3467      3470      3471      3469      3467      3470      3472
      3469      3467      3470      3473      3470      3473      3476      3477
      3470      3473      3476      3478      3470      3473      3476      3481
      3471      3470      3473      3474      3471      3470      3473      3475
      3471      3470      3473      3476      3472      3470      3473      3474
      3472      3470      3473      3475      3472      3470      3473      3476
      3473      3476      3478      3479      3473      3476      3478      3480
      3473      3476      3478      3481      3473      3476      3481      3478
      3473      3476      3481      3482      3473      3476      3481      3483
      3474      3473      3476      3477      3474      3473      3476      3478
      3474      3473      3476      3481      3475      3473      3476      3477
      3475      3473      3476      3478      3475      3473      3476      3481
      3476      3478      3481      3482      3476      3478      3481      3483
      3476      3481      3478      3479      3476      3481      3478      3480
      3476      3481      3483      3484      3476      3481      3483      3485
      3476      3481      3483      3486      3477      3476      3478      3479
      3477      3476      3478      3480      3477      3476      3478      3481
      3477      3476      3481      3478      3477      3476      3481      3482
      3477      3476      3481      3483      3478      3476      3481      3482
      3478      3476      3481      3483      3478      3481      3483      3484
      3478      3481      3483      3485      3478      3481      3483      3486
      3479      3478      3476      3481      3479      3478      3481      3482
      3479      3478      3481      3483      3480      3478      3476      3481
      3480      3478      3481      3482      3480      3478      3481      3483
      3481      3483      3486      3487      3481      3483      3486      3488
      3481      3483      3486      3489      3482      3481      3483      3484
      3482      3481      3483      3485      3482      3481      3483      3486
      3483      3486      3489      3490      3483      3486      3489      3491
      3483      3486      3489      3492      3484      3483      3486      3487
      3484      3483      3486      3488      3484      3483      3486      3489
      3485      3483      3486      3487      3485      3483      3486      3488
      3485      3483      3486      3489      3486      3489      3492      3493
      3486      3489      3492      3494      3486      3489      3492      3495
      3487      3486      3489      3490      3487      3486      3489      3491
      3487      3486      3489      3492      3488      3486      3489      3490
      3488      3486      3489      3491      3488      3486      3489      3492
      3489      3492      3495      3496      3489      3492      3495      3497
      3489      3492      3495      3498      3490      3489      3492      3493
      3490      3489      3492      3494      3490      3489      3492      3495
      3491      3489      3492      3493      3491      3489      3492      3494
      3491      3489      3492      3495      3492      3495      3498      3499
      3492      3495      3498      3500      3492      3495      3498      3501
      3493      3492      3495      3496      3493      3492      3495      3497
      3493      3492      3495      3498      3494      3492      3495      3496
      3494      3492      3495      3497      3494      3492      3495      3498
      3496      3495      3498      3499      3496      3495      3498      3500
      3496      3495      3498      3501      3497      3495      3498      3499
      3497      3495      3498      3500      3497      3495      3498      3501
      3502      3505      3508      3509      3502      3505      3508      3510
      3502      3505      3508      3511      3503      3502      3505      3506
      3503      3502      3505      3507      3503      3502      3505      3508
      3504      3502      3505      3506      3504      3502      3505      3507
      3504      3502      3505      3508      3505      3508      3511      3512
      3505      3508      3511      3513      3505      3508      3511      3514
      3506      3505      3508      3509      3506      3505      3508      3510
      3506      3505      3508      3511      3507      3505      3508      3509
      3507      3505      3508      3510      3507      3505      3508      3511
      3508      3511      3514      3515      3508      3511      3514      3516
      3508      3511      3514      3517      3509      3508      3511      3512
      3509      3508      3511      3513      3509      3508      3511      3514
      3510      3508      3511      3512      3510      3508      3511      3513
      3510      3508      3511      3514      3511      3514      3517      3518
      3511      3514      3517      3519      3511      3514      3517      3520
      3512      3511      3514      3515      3512      3511      3514      3516
      3512      3511      3514      3517      3513      3511      3514      3515
      3513      3511      3514      3516      3513      3511      3514      3517
      3514      3517      3520      3521      3514      3517      3520      3522
      3514      3517      3520      3523      3515      3514      3517      3518
      3515      3514      3517      3519      3515      3514      3517      3520
      3516      3514      3517      3518      3516      3514      3517      3519
      3516      3514      3517      3520      3517      3520      3523      3524
      3517      3520      3523      3525      3517      3520      3523      3526
      3518      3517      3520      3521      3518      3517      3520      3522
      3518      3517      3520      3523      3519      3517      3520      3521
      3519      3517      3520      3522      3519      3517      3520      3523
      3520      3523      3526      3527      3520      3523      3526      3528
      3520      3523      3526      3529      3521      3520      3523      3524
      3521      3520      3523      3525      3521      3520      3523      3526
      3522      3520      3523      3524      3522      3520      3523      3525
      3522      3520      3523      3526      3523      3526      3529      3530
      3523      3526      3529      3531      3523      3526      3529      3532
      3524      3523      3526      3527      3524      3523      3526      3528
      3524      3523      3526      3529      3525      3523      3526      3527
      3525      3523      3526      3528      3525      3523      3526      3529
      3526      3529      3532      3533      3526      3529      3532      3534
      3526      3529      3532      3535      3527      3526      3529      3530
      3527      3526      3529      3531      3527      3526      3529      3532
      3528      3526      3529      3530      3528      3526      3529      3531
      3528      3526      3529      3532      3529      3532      3535      3536
      3529      3532      3535      3537      3529      3532      3535      3538
      3530      3529      3532      3533      3530      3529      3532      3534
      3530      3529      3532      3535      3531      3529      3532      3533
      3531      3529      3532      3534      3531      3529      3532      3535
      3532      3535      3538      3539      3532      3535      3538      3540
      3532      3535      3538      3541      3533      3532      3535      3536
      3533      3532      3535      3537      3533      3532      3535      3538
      3534      3532      3535      3536      3534      3532      3535      3537
      3534      3532      3535      3538      3535      3538      3541      3542
      3535      3538      3541      3543      3535      3538      3541      3544
      3536      3535      3538      3539      3536      3535      3538      3540
      3536      3535      3538      3541      3537      3535      3538      3539
      3537      3535      3538      3540      3537      3535      3538      3541
      3539      3538      3541      3542      3539      3538      3541      3543
      3539      3538      3541      3544      3540      3538      3541      3542
      3540      3538      3541      3543      3540      3538      3541      3544
      3545      3549      3552      3553      3545      3549      3552      3554
      3545      3549      3552      3559      3546      3545      3549      3550
      3546      3545      3549      3551      3546      3545      3549      3552
      3547      3545      3549      3550      3547      3545      3549      3551
      3547      3545      3549      3552      3548      3545      3549      3550
      3548      3545      3549      3551      3548      3545      3549      3552
      3549      3552      3559      3555      3550      3549      3552      3553
      3550      3549      3552      3554      3550      3549      3552      3559
      3551      3549      3552      3553      3551      3549      3552      3554
      3551      3549      3552      3559      3552      3559      3555      3556
      3552      3559      3555      3557      3552      3559      3555      3558
      3553      3552      3559      3555      3554      3552      3559      3555
      3555      3558      3560      3561      3555      3558      3560      3562
      3555      3558      3560      3563      3556      3555      3558      3560
      3557      3555      3558      3560      3558      3560      3563      3564
      3558      3560      3563      3565      3558      3560      3563      3571
      3559      3555      3558      3560      3560      3563      3565      3566
      3560      3563      3571      3572      3560      3563      3571      3573
      3560      3563      3571      3574      3561      3560      3563      3564
      3561      3560      3563      3565      3561      3560      3563      3571
      3562      3560      3563      3564      3562      3560      3563      3565
      3562      3560      3563      3571      3563      3565      3566      3567
      3563      3565      3566      3568      3563      3571      3574      3575
      3564      3563      3565      3566      3564      3563      3571      3572
      3564      3563      3571      3573      3564      3563      3571      3574
      3565      3563      3571      3572      3565      3563      3571      3573
      3565      3563      3571      3574      3565      3566      3568      3569
      3565      3566      3568      3570      3565      3566      3568      3580
      3566      3565      3563      3571      3566      3568      3580      3581
      3566      3568      3580      3582      3566      3568      3580      3583
      3567      3566      3568      3569      3567      3566      3568      3570
      3567      3566      3568      3580      3568      3580      3583      3584
      3568      3580      3583      3585      3568      3580      3583      3586
      3569      3568      3580      3581      3569      3568      3580      3582
      3569      3568      3580      3583      3570      3568      3580      3581
      3570      3568      3580      3582      3570      3568      3580      3583
      3571      3574      3575      3576      3571      3574      3575      3577
      3572      3571      3574      3575      3573      3571      3574      3575
      3574      3575      3577      3578      3574      3575      3577      3579
      3574      3575      3577      3627      3575      3577      3627      3628
      3575      3577      3627      3629      3575      3577      3627      3630
      3576      3575      3577      3578      3576      3575      3577      3579
      3576      3575      3577      3627      3577      3627      3630      3631
      3577      3627      3630      3632      3577      3627      3630      3633
      3578      3577      3627      3628      3578      3577      3627      3629
      3578      3577      3627      3630      3579      3577      3627      3628
      3579      3577      3627      3629      3579      3577      3627      3630
      3580      3583      3586      3587      3580      3583      3586      3588
      3580      3583      3586      3589      3581      3580      3583      3584
      3581      3580      3583      3585      3581      3580      3583      3586
      3582      3580      3583      3584      3582      3580      3583      3585
      3582      3580      3583      3586      3583      3586      3589      3590
      3583      3586      3589      3591      3583      3586      3589      3592
      3584      3583      3586      3587      3584      3583      3586      3588
      3584      3583      3586      3589      3585      3583      3586      3587
      3585      3583      3586      3588      3585      3583      3586      3589
      3586      3589      3592      3593      3586      3589      3592      3594
      3586      3589      3592      3595      3587      3586      3589      3590
      3587      3586      3589      3591      3587      3586      3589      3592
      3588      3586      3589      3590      3588      3586      3589      3591
      3588      3586      3589      3592      3589      3592      3595      3596
      3589      3592      3595      3597      3589      3592      3595      3598
      3590      3589      3592      3593      3590      3589      3592      3594
      3590      3589      3592      3595      3591      3589      3592      3593
      3591      3589      3592      3594      3591      3589      3592      3595
      3592      3595      3598      3599      3592      3595      3598      3600
      3593      3592      3595      3596      3593      3592      3595      3597
      3593      3592      3595      3598      3594      3592      3595      3596
      3594      3592      3595      3597      3594      3592      3595      3598
      3595      3598      3600      3601      3595      3598      3600      3602
      3596      3595      3598      3599      3596      3595      3598      3600
      3597      3595      3598      3599      3597      3595      3598      3600
      3598      3600      3602      3603      3598      3600      3602      3604
      3598      3600      3602      3605      3599      3598      3600      3601
      3599      3598      3600      3602      3600      3602      3605      3606
      3600      3602      3605      3607      3600      3602      3605      3608
      3601      3600      3602      3603      3601      3600      3602      3604
      3601      3600      3602      3605      3602      3605      3608      3609
      3602      3605      3608      3610      3602      3605      3608      3611
      3603      3602      3605      3606      3603      3602      3605      3607
      3603      3602      3605      3608      3604      3602      3605      3606
      3604      3602      3605      3607      3604      3602      3605      3608
      3605      3608      3611      3612      3605      3608      3611      3613
      3605      3608      3611      3614      3606      3605      3608      3609
      3606      3605      3608      3610      3606      3605      3608      3611
      3607      3605      3608      3609      3607      3605      3608      3610
      3607      3605      3608      3611      3608      3611      3614      3615
      3608      3611      3614      3616      3608      3611      3614      3617
      3609      3608      3611      3612      3609      3608      3611      3613
      3609      3608      3611      3614      3610      3608      3611      3612
      3610      3608      3611      3613      3610      3608      3611      3614
      3611      3614      3617      3618      3611      3614      3617      3619
      3611      3614      3617      3620      3612      3611      3614      3615
      3612      3611      3614      3616      3612      3611      3614      3617
      3613      3611      3614      3615      3613      3611      3614      3616
      3613      3611      3614      3617      3614      3617      3620      3621
      3614      3617      3620      3622      3614      3617      3620      3623
      3615      3614      3617      3618      3615      3614      3617      3619
      3615      3614      3617      3620      3616      3614      3617      3618
      3616      3614      3617      3619      3616      3614      3617      3620
      3617      3620      3623      3624      3617      3620      3623      3625
      3617      3620      3623      3626      3618      3617      3620      3621
      3618      3617      3620      3622      3618      3617      3620      3623
      3619      3617      3620      3621      3619      3617      3620      3622
      3619      3617      3620      3623      3621      3620      3623      3624
      3621      3620      3623      3625      3621      3620      3623      3626
      3622      3620      3623      3624      3622      3620      3623      3625
      3622      3620      3623      3626      3627      3630      3633      3634
      3627      3630      3633      3635      3627      3630      3633      3636
      3628      3627      3630      3631      3628      3627      3630      3632
      3628      3627      3630      3633      3629      3627      3630      3631
      3629      3627      3630      3632      3629      3627      3630      3633
      3630      3633      3636      3637      3630      3633      3636      3638
      3630      3633      3636      3639      3631      3630      3633      3634
      3631      3630      3633      3635      3631      3630      3633      3636
      3632      3630      3633      3634      3632      3630      3633      3635
      3632      3630      3633      3636      3633      3636      3639      3640
      3633      3636      3639      3641      3633      3636      3639      3642
      3634      3633      3636      3637      3634      3633      3636      3638
      3634      3633      3636      3639      3635      3633      3636      3637
      3635      3633      3636      3638      3635      3633      3636      3639
      3636      3639      3642      3643      3636      3639      3642      3644
      3636      3639      3642      3645      3637      3636      3639      3640
      3637      3636      3639      3641      3637      3636      3639      3642
      3638      3636      3639      3640      3638      3636      3639      3641
      3638      3636      3639      3642      3639      3642      3645      3646
      3639      3642      3645      3647      3639      3642      3645      3648
      3640      3639      3642      3643      3640      3639      3642      3644
      3640      3639      3642      3645      3641      3639      3642      3643
      3641      3639      3642      3644      3641      3639      3642      3645
      3642      3645      3648      3649      3642      3645      3648      3650
      3642      3645      3648      3651      3643      3642      3645      3646
      3643      3642      3645      3647      3643      3642      3645      3648
      3644      3642      3645      3646      3644      3642      3645      3647
      3644      3642      3645      3648      3645      3648      3651      3652
      3645      3648      3651      3653      3645      3648      3651      3654
      3646      3645      3648      3649      3646      3645      3648      3650
      3646      3645      3648      3651      3647      3645      3648      3649
      3647      3645      3648      3650      3647      3645      3648      3651
      3648      3651      3654      3655      3648      3651      3654      3656
      3648      3651      3654      3657      3649      3648      3651      3652
      3649      3648      3651      3653      3649      3648      3651      3654
      3650      3648      3651      3652      3650      3648      3651      3653
      3650      3648      3651      3654      3651      3654      3657      3658
      3651      3654      3657      3659      3651      3654      3657      3660
      3652      3651      3654      3655      3652      3651      3654      3656
      3652      3651      3654      3657      3653      3651      3654      3655
      3653      3651      3654      3656      3653      3651      3654      3657
      3654      3657      3660      3661      3654      3657      3660      3662
      3654      3657      3660      3663      3655      3654      3657      3658
      3655      3654      3657      3659      3655      3654      3657      3660
      3656      3654      3657      3658      3656      3654      3657      3659
      3656      3654      3657      3660      3657      3660      3663      3664
      3657      3660      3663      3665      3657      3660      3663      3666
      3658      3657      3660      3661      3658      3657      3660      3662
      3658      3657      3660      3663      3659      3657      3660      3661
      3659      3657      3660      3662      3659      3657      3660      3663
      3660      3663      3666      3667      3660      3663      3666      3668
      3660      3663      3666      3669      3661      3660      3663      3664
      3661      3660      3663      3665      3661      3660      3663      3666
      3662      3660      3663      3664      3662      3660      3663      3665
      3662      3660      3663      3666      3664      3663      3666      3667
      3664      3663      3666      3668      3664      3663      3666      3669
      3665      3663      3666      3667      3665      3663      3666      3668
      3665      3663      3666      3669      3670      3674      3677      3678
      3670      3674      3677      3679      3670      3674      3677      3684
      3671      3670      3674      3675      3671      3670      3674      3676
      3671      3670      3674      3677      3672      3670      3674      3675
      3672      3670      3674      3676      3672      3670      3674      3677
      3673      3670      3674      3675      3673      3670      3674      3676
      3673      3670      3674      3677      3674      3677      3684      3680
      3675      3674      3677      3678      3675      3674      3677      3679
      3675      3674      3677      3684      3676      3674      3677      3678
      3676      3674      3677      3679      3676      3674      3677      3684
      3677      3684      3680      3681      3677      3684      3680      3682
      3677      3684      3680      3683      3678      3677      3684      3680
      3679      3677      3684      3680      3680      3683      3685      3686
      3680      3683      3685      3687      3680      3683      3685      3688
      3681      3680      3683      3685      3682      3680      3683      3685
      3683      3685      3688      3689      3683      3685      3688      3690
      3683      3685      3688      3696      3684      3680      3683      3685
      3685      3688      3690      3691      3685      3688      3696      3697
      3685      3688      3696      3698      3685      3688      3696      3699
      3686      3685      3688      3689      3686      3685      3688      3690
      3686      3685      3688      3696      3687      3685      3688      3689
      3687      3685      3688      3690      3687      3685      3688      3696
      3688      3690      3691      3692      3688      3690      3691      3693
      3688      3696      3699      3700      3689      3688      3690      3691
      3689      3688      3696      3697      3689      3688      3696      3698
      3689      3688      3696      3699      3690      3688      3696      3697
      3690      3688      3696      3698      3690      3688      3696      3699
      3690      3691      3693      3694      3690      3691      3693      3695
      3690      3691      3693      3705      3691      3690      3688      3696
      3691      3693      3705      3706      3691      3693      3705      3707
      3691      3693      3705      3708      3692      3691      3693      3694
      3692      3691      3693      3695      3692      3691      3693      3705
      3693      3705      3708      3709      3693      3705      3708      3710
      3693      3705      3708      3711      3694      3693      3705      3706
      3694      3693      3705      3707      3694      3693      3705      3708
      3695      3693      3705      3706      3695      3693      3705      3707
      3695      3693      3705      3708      3696      3699      3700      3701
      3696      3699      3700      3702      3697      3696      3699      3700
      3698      3696      3699      3700      3699      3700      3702      3703
      3699      3700      3702      3704      3699      3700      3702      3752
      3700      3702      3752      3753      3700      3702      3752      3754
      3700      3702      3752      3755      3701      3700      3702      3703
      3701      3700      3702      3704      3701      3700      3702      3752
      3702      3752      3755      3756      3702      3752      3755      3757
      3702      3752      3755      3758      3703      3702      3752      3753
      3703      3702      3752      3754      3703      3702      3752      3755
      3704      3702      3752      3753      3704      3702      3752      3754
      3704      3702      3752      3755      3705      3708      3711      3712
      3705      3708      3711      3713      3705      3708      3711      3714
      3706      3705      3708      3709      3706      3705      3708      3710
      3706      3705      3708      3711      3707      3705      3708      3709
      3707      3705      3708      3710      3707      3705      3708      3711
      3708      3711      3714      3715      3708      3711      3714      3716
      3708      3711      3714      3717      3709      3708      3711      3712
      3709      3708      3711      3713      3709      3708      3711      3714
      3710      3708      3711      3712      3710      3708      3711      3713
      3710      3708      3711      3714      3711      3714      3717      3718
      3711      3714      3717      3719      3711      3714      3717      3720
      3712      3711      3714      3715      3712      3711      3714      3716
      3712      3711      3714      3717      3713      3711      3714      3715
      3713      3711      3714      3716      3713      3711      3714      3717
      3714      3717      3720      3721      3714      3717      3720      3722
      3714      3717      3720      3723      3715      3714      3717      3718
      3715      3714      3717      3719      3715      3714      3717      3720
      3716      3714      3717      3718      3716      3714      3717      3719
      3716      3714      3717      3720      3717      3720      3723      3724
      3717      3720      3723      3725      3718      3717      3720      3721
      3718      3717      3720      3722      3718      3717      3720      3723
      3719      3717      3720      3721      3719      3717      3720      3722
      3719      3717      3720      3723      3720      3723      3725      3726
      3720      3723      3725      3727      3721      3720      3723      3724
      3721      3720      3723      3725      3722      3720      3723      3724
      3722      3720      3723      3725      3723      3725      3727      3728
      3723      3725      3727      3729      3723      3725      3727      3730
      3724      3723      3725      3726      3724      3723      3725      3727
      3725      3727      3730      3731      3725      3727      3730      3732
      3725      3727      3730      3733      3726      3725      3727      3728
      3726      3725      3727      3729      3726      3725      3727      3730
      3727      3730      3733      3734      3727      3730      3733      3735
      3727      3730      3733      3736      3728      3727      3730      3731
      3728      3727      3730      3732      3728      3727      3730      3733
      3729      3727      3730      3731      3729      3727      3730      3732
      3729      3727      3730      3733      3730      3733      3736      3737
      3730      3733      3736      3738      3730      3733      3736      3739
      3731      3730      3733      3734      3731      3730      3733      3735
      3731      3730      3733      3736      3732      3730      3733      3734
      3732      3730      3733      3735      3732      3730      3733      3736
      3733      3736      3739      3740      3733      3736      3739      3741
      3733      3736      3739      3742      3734      3733      3736      3737
      3734      3733      3736      3738      3734      3733      3736      3739
      3735      3733      3736      3737      3735      3733      3736      3738
      3735      3733      3736      3739      3736      3739      3742      3743
      3736      3739      3742      3744      3736      3739      3742      3745
      3737      3736      3739      3740      3737      3736      3739      3741
      3737      3736      3739      3742      3738      3736      3739      3740
      3738      3736      3739      3741      3738      3736      3739      3742
      3739      3742      3745      3746      3739      3742      3745      3747
      3739      3742      3745      3748      3740      3739      3742      3743
      3740      3739      3742      3744      3740      3739      3742      3745
      3741      3739      3742      3743      3741      3739      3742      3744
      3741      3739      3742      3745      3742      3745      3748      3749
      3742      3745      3748      3750      3742      3745      3748      3751
      3743      3742      3745      3746      3743      3742      3745      3747
      3743      3742      3745      3748      3744      3742      3745      3746
      3744      3742      3745      3747      3744      3742      3745      3748
      3746      3745      3748      3749      3746      3745      3748      3750
      3746      3745      3748      3751      3747      3745      3748      3749
      3747      3745      3748      3750      3747      3745      3748      3751
      3752      3755      3758      3759      3752      3755      3758      3760
      3752      3755      3758      3761      3753      3752      3755      3756
      3753      3752      3755      3757      3753      3752      3755      3758
      3754      3752      3755      3756      3754      3752      3755      3757
      3754      3752      3755      3758      3755      3758      3761      3762
      3755      3758      3761      3763      3755      3758      3761      3764
      3756      3755      3758      3759      3756      3755      3758      3760
      3756      3755      3758      3761      3757      3755      3758      3759
      3757      3755      3758      3760      3757      3755      3758      3761
      3758      3761      3764      3765      3758      3761      3764      3766
      3758      3761      3764      3767      3759      3758      3761      3762
      3759      3758      3761      3763      3759      3758      3761      3764
      3760      3758      3761      3762      3760      3758      3761      3763
      3760      3758      3761      3764      3761      3764      3767      3768
      3761      3764      3767      3769      3761      3764      3767      3770
      3762      3761      3764      3765      3762      3761      3764      3766
      3762      3761      3764      3767      3763      3761      3764      3765
      3763      3761      3764      3766      3763      3761      3764      3767
      3764      3767      3770      3771      3764      3767      3770      3772
      3764      3767      3770      3773      3765      3764      3767      3768
      3765      3764      3767      3769      3765      3764      3767      3770
      3766      3764      3767      3768      3766      3764      3767      3769
      3766      3764      3767      3770      3767      3770      3773      3774
      3767      3770      3773      3775      3767      3770      3773      3776
      3768      3767      3770      3771      3768      3767      3770      3772
      3768      3767      3770      3773      3769      3767      3770      3771
      3769      3767      3770      3772      3769      3767      3770      3773
      3770      3773      3776      3777      3770      3773      3776      3778
      3770      3773      3776      3779      3771      3770      3773      3774
      3771      3770      3773      3775      3771      3770      3773      3776
      3772      3770      3773      3774      3772      3770      3773      3775
      3772      3770      3773      3776      3773      3776      3779      3780
      3773      3776      3779      3781      3773      3776      3779      3782
      3774      3773      3776      3777      3774      3773      3776      3778
      3774      3773      3776      3779      3775      3773      3776      3777
      3775      3773      3776      3778      3775      3773      3776      3779
      3776      3779      3782      3783      3776      3779      3782      3784
      3776      3779      3782      3785      3777      3776      3779      3780
      3777      3776      3779      3781      3777      3776      3779      3782
      3778      3776      3779      3780      3778      3776      3779      3781
      3778      3776      3779      3782      3779      3782      3785      3786
      3779      3782      3785      3787      3779      3782      3785      3788
      3780      3779      3782      3783      3780      3779      3782      3784
      3780      3779      3782      3785      3781      3779      3782      3783
      3781      3779      3782      3784      3781      3779      3782      3785
      3782      3785      3788      3789      3782      3785      3788      3790
      3782      3785      3788      3791      3783      3782      3785      3786
      3783      3782      3785      3787      3783      3782      3785      3788
      3784      3782      3785      3786      3784      3782      3785      3787
      3784      3782      3785      3788      3785      3788      3791      3792
      3785      3788      3791      3793      3785      3788      3791      3794
      3786      3785      3788      3789      3786      3785      3788      3790
      3786      3785      3788      3791      3787      3785      3788      3789
      3787      3785      3788      3790      3787      3785      3788      3791
      3789      3788      3791      3792      3789      3788      3791      3793
      3789      3788      3791      3794      3790      3788      3791      3792
      3790      3788      3791      3793      3790      3788      3791      3794
      3795      3800      3802      3803      3795      3800      3804      3805
      3795      3800      3804      3806      3795      3800      3804      3811
      3796      3795      3798      3799      3796      3795      3800      3801
      3796      3795      3800      3802      3796      3795      3800      3804
      3797      3795      3798      3799      3797      3795      3800      3801
      3797      3795      3800      3802      3797      3795      3800      3804
      3798      3795      3800      3801      3798      3795      3800      3802
      3798      3795      3800      3804      3799      3798      3795      3800
      3800      3804      3811      3807      3801      3800      3802      3803
      3801      3800      3804      3805      3801      3800      3804      3806
      3801      3800      3804      3811      3802      3800      3804      3805
      3802      3800      3804      3806      3802      3800      3804      3811
      3803      3802      3800      3804      3804      3811      3807      3808
      3804      3811      3807      3809      3804      3811      3807      3810
      3805      3804      3811      3807      3806      3804      3811      3807
      3807      3810      3812      3813      3807      3810      3812      3814
      3807      3810      3812      3815      3808      3807      3810      3812
      3809      3807      3810      3812      3810      3812      3815      3816
      3810      3812      3815      3817      3810      3812      3815      3823
      3811      3807      3810      3812      3812      3815      3817      3818
      3812      3815      3823      3824      3812      3815      3823      3825
      3812      3815      3823      3826      3813      3812      3815      3816
      3813      3812      3815      3817      3813      3812      3815      3823
      3814      3812      3815      3816      3814      3812      3815      3817
      3814      3812      3815      3823      3815      3817      3818      3819
      3815      3817      3818      3820      3815      3823      3826      3827
      3816      3815      3817      3818      3816      3815      3823      3824
      3816      3815      3823      3825      3816      3815      3823      3826
      3817      3815      3823      3824      3817      3815      3823      3825
      3817      3815      3823      3826      3817      3818      3820      3821
      3817      3818      3820      3822      3817      3818      3820      3832
      3818      3817      3815      3823      3818      3820      3832      3833
      3818      3820      3832      3834      3818      3820      3832      3835
      3819      3818      3820      3821      3819      3818      3820      3822
      3819      3818      3820      3832      3820      3832      3835      3836
      3820      3832      3835      3837      3820      3832      3835      3838
      3821      3820      3832      3833      3821      3820      3832      3834
      3821      3820      3832      3835      3822      3820      3832      3833
      3822      3820      3832      3834      3822      3820      3832      3835
      3823      3826      3827      3828      3823      3826      3827      3829
      3824      3823      3826      3827      3825      3823      3826      3827
      3826      3827      3829      3830      3826      3827      3829      3831
      3826      3827      3829      3873      3827      3829      3873      3874
      3827      3829      3873      3875      3827      3829      3873      3876
      3828      3827      3829      3830      3828      3827      3829      3831
      3828      3827      3829      3873      3829      3873      3876      3877
      3829      3873      3876      3878      3829      3873      3876      3879
      3830      3829      3873      3874      3830      3829      3873      3875
      3830      3829      3873      3876      3831      3829      3873      3874
      3831      3829      3873      3875      3831      3829      3873      3876
      3832      3835      3838      3839      3832      3835      3838      3840
      3832      3835      3838      3841      3833      3832      3835      3836
      3833      3832      3835      3837      3833      3832      3835      3838
      3834      3832      3835      3836      3834      3832      3835      3837
      3834      3832      3835      3838      3835      3838      3841      3842
      3835      3838      3841      3843      3835      3838      3841      3844
      3836      3835      3838      3839      3836      3835      3838      3840
      3836      3835      3838      3841      3837      3835      3838      3839
      3837      3835      3838      3840      3837      3835      3838      3841
      3838      3841      3844      3845      3838      3841      3844      3846
      3838      3841      3844      3847      3839      3838      3841      3842
      3839      3838      3841      3843      3839      3838      3841      3844
      3840      3838      3841      3842      3840      3838      3841      3843
      3840      3838      3841      3844      3841      3844      3847      3848
      3841      3844      3847      3849      3841      3844      3847      3850
      3842      3841      3844      3845      3842      3841      3844      3846
      3842      3841      3844      3847      3843      3841      3844      3845
      3843      3841      3844      3846      3843      3841      3844      3847
      3844      3847      3850      3851      3844      3847      3850      3852
      3845      3844      3847      3848      3845      3844      3847      3849
      3845      3844      3847      3850      3846      3844      3847      3848
      3846      3844      3847      3849      3846      3844      3847      3850
      3847      3850      3852      3853      3847      3850      3852      3854
      3848      3847      3850      3851      3848      3847      3850      3852
      3849      3847      3850      3851      3849      3847      3850      3852
      3850      3852      3854      3855      3850      3852      3854      3856
      3850      3852      3854      3857      3851      3850      3852      3853
      3851      3850      3852      3854      3852      3854      3857      3858
      3852      3854      3857      3859      3852      3854      3857      3860
      3853      3852      3854      3855      3853      3852      3854      3856
      3853      3852      3854      3857      3854      3857      3860      3861
      3854      3857      3860      3862      3854      3857      3860      3863
      3855      3854      3857      3858      3855      3854      3857      3859
      3855      3854      3857      3860      3856      3854      3857      3858
      3856      3854      3857      3859      3856      3854      3857      3860
      3857      3860      3863      3864      3857      3860      3863      3865
      3857      3860      3863      3866      3858      3857      3860      3861
      3858      3857      3860      3862      3858      3857      3860      3863
      3859      3857      3860      3861      3859      3857      3860      3862
      3859      3857      3860      3863      3860      3863      3866      3867
      3860      3863      3866      3868      3860      3863      3866      3869
      3861      3860      3863      3864      3861      3860      3863      3865
      3861      3860      3863      3866      3862      3860      3863      3864
      3862      3860      3863      3865      3862      3860      3863      3866
      3863      3866      3869      3870      3863      3866      3869      3871
      3863      3866      3869      3872      3864      3863      3866      3867
      3864      3863      3866      3868      3864      3863      3866      3869
      3865      3863      3866      3867      3865      3863      3866      3868
      3865      3863      3866      3869      3867      3866      3869      3870
      3867      3866      3869      3871      3867      3866      3869      3872
      3868      3866      3869      3870      3868      3866      3869      3871
      3868      3866      3869      3872      3873      3876      3879      3880
      3873      3876      3879      3881      3873      3876      3879      3882
      3874      3873      3876      3877      3874      3873      3876      3878
      3874      3873      3876      3879      3875      3873      3876      3877
      3875      3873      3876      3878      3875      3873      3876      3879
      3876      3879      3882      3883      3876      3879      3882      3884
      3876      3879      3882      3885      3877      3876      3879      3880
      3877      3876      3879      3881      3877      3876      3879      3882
      3878      3876      3879      3880      3878      3876      3879      3881
      3878      3876      3879      3882      3879      3882      3885      3886
      3879      3882      3885      3887      3879      3882      3885      3888
      3880      3879      3882      3883      3880      3879      3882      3884
      3880      3879      3882      3885      3881      3879      3882      3883
      3881      3879      3882      3884      3881      3879      3882      3885
      3882      3885      3888      3889      3882      3885      3888      3890
      3882      3885      3888      3891      3883      3882      3885      3886
      3883      3882      3885      3887      3883      3882      3885      3888
      3884      3882      3885      3886      3884      3882      3885      3887
      3884      3882      3885      3888      3885      3888      3891      3892
      3885      3888      3891      3893      3885      3888      3891      3894
      3886      3885      3888      3889      3886      3885      3888      3890
      3886      3885      3888      3891      3887      3885      3888      3889
      3887      3885      3888      3890      3887      3885      3888      3891
      3888      3891      3894      3895      3888      3891      3894      3896
      3888      3891      3894      3897      3889      3888      3891      3892
      3889      3888      3891      3893      3889      3888      3891      3894
      3890      3888      3891      3892      3890      3888      3891      3893
      3890      3888      3891      3894      3891      3894      3897      3898
      3891      3894      3897      3899      3891      3894      3897      3900
      3892      3891      3894      3895      3892      3891      3894      3896
      3892      3891      3894      3897      3893      3891      3894      3895
      3893      3891      3894      3896      3893      3891      3894      3897
      3894      3897      3900      3901      3894      3897      3900      3902
      3894      3897      3900      3903      3895      3894      3897      3898
      3895      3894      3897      3899      3895      3894      3897      3900
      3896      3894      3897      3898      3896      3894      3897      3899
      3896      3894      3897      3900      3897      3900      3903      3904
      3897      3900      3903      3905      3897      3900      3903      3906
      3898      3897      3900      3901      3898      3897      3900      3902
      3898      3897      3900      3903      3899      3897      3900      3901
      3899      3897      3900      3902      3899      3897      3900      3903
      3900      3903      3906      3907      3900      3903      3906      3908
      3900      3903      3906      3909      3901      3900      3903      3904
      3901      3900      3903      3905      3901      3900      3903      3906
      3902      3900      3903      3904      3902      3900      3903      3905
      3902      3900      3903      3906      3903      3906      3909      3910
      3903      3906      3909      3911      3903      3906      3909      3912
      3904      3903      3906      3907      3904      3903      3906      3908
      3904      3903      3906      3909      3905      3903      3906      3907
      3905      3903      3906      3908      3905      3903      3906      3909
      3906      3909      3912      3913      3906      3909      3912      3914
      3906      3909      3912      3915      3907      3906      3909      3910
      3907      3906      3909      3911      3907      3906      3909      3912
      3908      3906      3909      3910      3908      3906      3909      3911
      3908      3906      3909      3912      3910      3909      3912      3913
      3910      3909      3912      3914      3910      3909      3912      3915
      3911      3909      3912      3913      3911      3909      3912      3914
      3911      3909      3912      3915      3916      3920      3923      3924
      3916      3920      3923      3925      3916      3920      3923      3930
      3917      3916      3920      3921      3917      3916      3920      3922
      3917      3916      3920      3923      3918      3916      3920      3921
      3918      3916      3920      3922      3918      3916      3920      3923
      3919      3916      3920      3921      3919      3916      3920      3922
      3919      3916      3920      3923      3920      3923      3930      3926
      3921      3920      3923      3924      3921      3920      3923      3925
      3921      3920      3923      3930      3922      3920      3923      3924
      3922      3920      3923      3925      3922      3920      3923      3930
      3923      3930      3926      3927      3923      3930      3926      3928
      3923      3930      3926      3929      3924      3923      3930      3926
      3925      3923      3930      3926      3926      3929      3931      3932
      3926      3929      3931      3933      3926      3929      3931      3934
      3927      3926      3929      3931      3928      3926      3929      3931
      3929      3931      3934      3935      3929      3931      3934      3936
      3929      3931      3934      3942      3930      3926      3929      3931
      3931      3934      3936      3937      3931      3934      3942      3943
      3931      3934      3942      3944      3931      3934      3942      3945
      3932      3931      3934      3935      3932      3931      3934      3936
      3932      3931      3934      3942      3933      3931      3934      3935
      3933      3931      3934      3936      3933      3931      3934      3942
      3934      3936      3937      3938      3934      3936      3937      3939
      3934      3942      3945      3946      3935      3934      3936      3937
      3935      3934      3942      3943      3935      3934      3942      3944
      3935      3934      3942      3945      3936      3934      3942      3943
      3936      3934      3942      3944      3936      3934      3942      3945
      3936      3937      3939      3940      3936      3937      3939      3941
      3936      3937      3939      3951      3937      3936      3934      3942
      3937      3939      3951      3952      3937      3939      3951      3953
      3937      3939      3951      3954      3938      3937      3939      3940
      3938      3937      3939      3941      3938      3937      3939      3951
      3939      3951      3954      3955      3939      3951      3954      3956
      3939      3951      3954      3957      3940      3939      3951      3952
      3940      3939      3951      3953      3940      3939      3951      3954
      3941      3939      3951      3952      3941      3939      3951      3953
      3941      3939      3951      3954      3942      3945      3946      3947
      3942      3945      3946      3948      3943      3942      3945      3946
      3944      3942      3945      3946      3945      3946      3948      3949
      3945      3946      3948      3950      3945      3946      3948      3995
      3946      3948      3995      3996      3946      3948      3995      3997
      3946      3948      3995      3998      3947      3946      3948      3949
      3947      3946      3948      3950      3947      3946      3948      3995
      3948      3995      3998      3999      3948      3995      3998      4000
      3948      3995      3998      4001      3949      3948      3995      3996
      3949      3948      3995      3997      3949      3948      3995      3998
      3950      3948      3995      3996      3950      3948      3995      3997
      3950      3948      3995      3998      3951      3954      3957      3958
      3951      3954      3957      3959      3951      3954      3957      3960
      3952      3951      3954      3955      3952      3951      3954      3956
      3952      3951      3954      3957      3953      3951      3954      3955
      3953      3951      3954      3956      3953      3951      3954      3957
      3954      3957      3960      3961      3954      3957      3960      3962
      3954      3957      3960      3963      3955      3954      3957      3958
      3955      3954      3957      3959      3955      3954      3957      3960
      3956      3954      3957      3958      3956      3954      3957      3959
      3956      3954      3957      3960      3957      3960      3963      3964
      3957      3960      3963      3965      3957      3960      3963      3966
      3958      3957      3960      3961      3958      3957      3960      3962
      3958      3957      3960      3963      3959      3957      3960      3961
      3959      3957      3960      3962      3959      3957      3960      3963
      3960      3963      3966      3967      3960      3963      3966      3968
      3960      3963      3966      3969      3961      3960      3963      3964
      3961      3960      3963      3965      3961      3960      3963      3966
      3962      3960      3963      3964      3962      3960      3963      3965
      3962      3960      3963      3966      3963      3966      3969      3970
      3963      3966      3969      3971      3963      3966      3969      3974
      3964      3963      3966      3967      3964      3963      3966      3968
      3964      3963      3966      3969      3965      3963      3966      3967
      3965      3963      3966      3968      3965      3963      3966      3969
      3966      3969      3971      3972      3966      3969      3971      3973
      3966      3969      3971      3974      3966      3969      3974      3971
      3966      3969      3974      3975      3966      3969      3974      3976
      3967      3966      3969      3970      3967      3966      3969      3971
      3967      3966      3969      3974      3968      3966      3969      3970
      3968      3966      3969      3971      3968      3966      3969      3974
      3969      3971      3974      3975      3969      3971      3974      3976
      3969      3974      3971      3972      3969      3974      3971      3973
      3969      3974      3976      3977      3969      3974      3976      3978
      3969      3974      3976      3979      3970      3969      3971      3972
      3970      3969      3971      3973      3970      3969      3971      3974
      3970      3969      3974      3971      3970      3969      3974      3975
      3970      3969      3974      3976      3971      3969      3974      3975
      3971      3969      3974      3976      3971      3974      3976      3977
      3971      3974      3976      3978      3971      3974      3976      3979
      3972      3971      3969      3974      3972      3971      3974      3975
      3972      3971      3974      3976      3973      3971      3969      3974
      3973      3971      3974      3975      3973      3971      3974      3976
      3974      3976      3979      3980      3974      3976      3979      3981
      3974      3976      3979      3982      3975      3974      3976      3977
      3975      3974      3976      3978      3975      3974      3976      3979
      3976      3979      3982      3983      3976      3979      3982      3984
      3976      3979      3982      3985      3977      3976      3979      3980
      3977      3976      3979      3981      3977      3976      3979      3982
      3978      3976      3979      3980      3978      3976      3979      3981
      3978      3976      3979      3982      3979      3982      3985      3986
      3979      3982      3985      3987      3979      3982      3985      3988
      3980      3979      3982      3983      3980      3979      3982      3984
      3980      3979      3982      3985      3981      3979      3982      3983
      3981      3979      3982      3984      3981      3979      3982      3985
      3982      3985      3988      3989      3982      3985      3988      3990
      3982      3985      3988      3991      3983      3982      3985      3986
      3983      3982      3985      3987      3983      3982      3985      3988
      3984      3982      3985      3986      3984      3982      3985      3987
      3984      3982      3985      3988      3985      3988      3991      3992
      3985      3988      3991      3993      3985      3988      3991      3994
      3986      3985      3988      3989      3986      3985      3988      3990
      3986      3985      3988      3991      3987      3985      3988      3989
      3987      3985      3988      3990      3987      3985      3988      3991
      3989      3988      3991      3992      3989      3988      3991      3993
      3989      3988      3991      3994      3990      3988      3991      3992
      3990      3988      3991      3993      3990      3988      3991      3994
      3995      3998      4001      4002      3995      3998      4001      4003
      3995      3998      4001      4004      3996      3995      3998      3999
      3996      3995      3998      4000      3996      3995      3998      4001
      3997      3995      3998      3999      3997      3995      3998      4000
      3997      3995      3998      4001      3998      4001      4004      4005
      3998      4001      4004      4006      3998      4001      4004      4007
      3999      3998      4001      4002      3999      3998      4001      4003
      3999      3998      4001      4004      4000      3998      4001      4002
      4000      3998      4001      4003      4000      3998      4001      4004
      4001      4004      4007      4008      4001      4004      4007      4009
      4001      4004      4007      4010      4002      4001      4004      4005
      4002      4001      4004      4006      4002      4001      4004      4007
      4003      4001      4004      4005      4003      4001      4004      4006
      4003      4001      4004      4007      4004      4007      4010      4011
      4004      4007      4010      4012      4004      4007      4010      4013
      4005      4004      4007      4008      4005      4004      4007      4009
      4005      4004      4007      4010      4006      4004      4007      4008
      4006      4004      4007      4009      4006      4004      4007      4010
      4007      4010      4013      4014      4007      4010      4013      4015
      4007      4010      4013      4016      4008      4007      4010      4011
      4008      4007      4010      4012      4008      4007      4010      4013
      4009      4007      4010      4011      4009      4007      4010      4012
      4009      4007      4010      4013      4010      4013      4016      4017
      4010      4013      4016      4018      4010      4013      4016      4019
      4011      4010      4013      4014      4011      4010      4013      4015
      4011      4010      4013      4016      4012      4010      4013      4014
      4012      4010      4013      4015      4012      4010      4013      4016
      4013      4016      4019      4020      4013      4016      4019      4021
      4013      4016      4019      4022      4014      4013      4016      4017
      4014      4013      4016      4018      4014      4013      4016      4019
      4015      4013      4016      4017      4015      4013      4016      4018
      4015      4013      4016      4019      4016      4019      4022      4023
      4016      4019      4022      4024      4016      4019      4022      4025
      4017      4016      4019      4020      4017      4016      4019      4021
      4017      4016      4019      4022      4018      4016      4019      4020
      4018      4016      4019      4021      4018      4016      4019      4022
      4019      4022      4025      4026      4019      4022      4025      4027
      4019      4022      4025      4028      4020      4019      4022      4023
      4020      4019      4022      4024      4020      4019      4022      4025
      4021      4019      4022      4023      4021      4019      4022      4024
      4021      4019      4022      4025      4022      4025      4028      4029
      4022      4025      4028      4030      4022      4025      4028      4031
      4023      4022      4025      4026      4023      4022      4025      4027
      4023      4022      4025      4028      4024      4022      4025      4026
      4024      4022      4025      4027      4024      4022      4025      4028
      4025      4028      4031      4032      4025      4028      4031      4033
      4025      4028      4031      4034      4026      4025      4028      4029
      4026      4025      4028      4030      4026      4025      4028      4031
      4027      4025      4028      4029      4027      4025      4028      4030
      4027      4025      4028      4031      4028      4031      4034      4035
      4028      4031      4034      4036      4028      4031      4034      4037
      4029      4028      4031      4032      4029      4028      4031      4033
      4029      4028      4031      4034      4030      4028      4031      4032
      4030      4028      4031      4033      4030      4028      4031      4034
      4032      4031      4034      4035      4032      4031      4034      4036
      4032      4031      4034      4037      4033      4031      4034      4035
      4033      4031      4034      4036      4033      4031      4034      4037
      4038      4043      4045      4046      4038      4043      4047      4048
      4038      4043      4047      4049      4038      4043      4047      4054
      4039      4038      4041      4042      4039      4038      4043      4044
      4039      4038      4043      4045      4039      4038      4043      4047
      4040      4038      4041      4042      4040      4038      4043      4044
      4040      4038      4043      4045      4040      4038      4043      4047
      4041      4038      4043      4044      4041      4038      4043      4045
      4041      4038      4043      4047      4042      4041      4038      4043
      4043      4047      4054      4050      4044      4043      4045      4046
      4044      4043      4047      4048      4044      4043      4047      4049
      4044      4043      4047      4054      4045      4043      4047      4048
      4045      4043      4047      4049      4045      4043      4047      4054
      4046      4045      4043      4047      4047      4054      4050      4051
      4047      4054      4050      4052      4047      4054      4050      4053
      4048      4047      4054      4050      4049      4047      4054      4050
      4050      4053      4055      4056      4050      4053      4055      4057
      4050      4053      4055      4058      4051      4050      4053      4055
      4052      4050      4053      4055      4053      4055      4058      4059
      4053      4055      4058      4060      4053      4055      4058      4066
      4054      4050      4053      4055      4055      4058      4060      4061
      4055      4058      4066      4067      4055      4058      4066      4068
      4055      4058      4066      4069      4056      4055      4058      4059
      4056      4055      4058      4060      4056      4055      4058      4066
      4057      4055      4058      4059      4057      4055      4058      4060
      4057      4055      4058      4066      4058      4060      4061      4062
      4058      4060      4061      4063      4058      4066      4069      4070
      4059      4058      4060      4061      4059      4058      4066      4067
      4059      4058      4066      4068      4059      4058      4066      4069
      4060      4058      4066      4067      4060      4058      4066      4068
      4060      4058      4066      4069      4060      4061      4063      4064
      4060      4061      4063      4065      4060      4061      4063      4075
      4061      4060      4058      4066      4061      4063      4075      4076
      4061      4063      4075      4077      4061      4063      4075      4078
      4062      4061      4063      4064      4062      4061      4063      4065
      4062      4061      4063      4075      4063      4075      4078      4079
      4063      4075      4078      4080      4063      4075      4078      4081
      4064      4063      4075      4076      4064      4063      4075      4077
      4064      4063      4075      4078      4065      4063      4075      4076
      4065      4063      4075      4077      4065      4063      4075      4078
      4066      4069      4070      4071      4066      4069      4070      4072
      4067      4066      4069      4070      4068      4066      4069      4070
      4069      4070      4072      4073      4069      4070      4072      4074
      4069      4070      4072      4116      4070      4072      4116      4117
      4070      4072      4116      4118      4070      4072      4116      4119
      4071      4070      4072      4073      4071      4070      4072      4074
      4071      4070      4072      4116      4072      4116      4119      4120
      4072      4116      4119      4121      4072      4116      4119      4122
      4073      4072      4116      4117      4073      4072      4116      4118
      4073      4072      4116      4119      4074      4072      4116      4117
      4074      4072      4116      4118      4074      4072      4116      4119
      4075      4078      4081      4082      4075      4078      4081      4083
      4075      4078      4081      4084      4076      4075      4078      4079
      4076      4075      4078      4080      4076      4075      4078      4081
      4077      4075      4078      4079      4077      4075      4078      4080
      4077      4075      4078      4081      4078      4081      4084      4085
      4078      4081      4084      4086      4078      4081      4084      4087
      4079      4078      4081      4082      4079      4078      4081      4083
      4079      4078      4081      4084      4080      4078      4081      4082
      4080      4078      4081      4083      4080      4078      4081      4084
      4081      4084      4087      4088      4081      4084      4087      4089
      4081      4084      4087      4090      4082      4081      4084      4085
      4082      4081      4084      4086      4082      4081      4084      4087
      4083      4081      4084      4085      4083      4081      4084      4086
      4083      4081      4084      4087      4084      4087      4090      4091
      4084      4087      4090      4092      4084      4087      4090      4093
      4085      4084      4087      4088      4085      4084      4087      4089
      4085      4084      4087      4090      4086      4084      4087      4088
      4086      4084      4087      4089      4086      4084      4087      4090
      4087      4090      4093      4094      4087      4090      4093      4095
      4088      4087      4090      4091      4088      4087      4090      4092
      4088      4087      4090      4093      4089      4087      4090      4091
      4089      4087      4090      4092      4089      4087      4090      4093
      4090      4093      4095      4096      4090      4093      4095      4097
      4091      4090      4093      4094      4091      4090      4093      4095
      4092      4090      4093      4094      4092      4090      4093      4095
      4093      4095      4097      4098      4093      4095      4097      4099
      4093      4095      4097      4100      4094      4093      4095      4096
      4094      4093      4095      4097      4095      4097      4100      4101
      4095      4097      4100      4102      4095      4097      4100      4103
      4096      4095      4097      4098      4096      4095      4097      4099
      4096      4095      4097      4100      4097      4100      4103      4104
      4097      4100      4103      4105      4097      4100      4103      4106
      4098      4097      4100      4101      4098      4097      4100      4102
      4098      4097      4100      4103      4099      4097      4100      4101
      4099      4097      4100      4102      4099      4097      4100      4103
      4100      4103      4106      4107      4100      4103      4106      4108
      4100      4103      4106      4109      4101      4100      4103      4104
      4101      4100      4103      4105      4101      4100      4103      4106
      4102      4100      4103      4104      4102      4100      4103      4105
      4102      4100      4103      4106      4103      4106      4109      4110
      4103      4106      4109      4111      4103      4106      4109      4112
      4104      4103      4106      4107      4104      4103      4106      4108
      4104      4103      4106      4109      4105      4103      4106      4107
      4105      4103      4106      4108      4105      4103      4106      4109
      4106      4109      4112      4113      4106      4109      4112      4114
      4106      4109      4112      4115      4107      4106      4109      4110
      4107      4106      4109      4111      4107      4106      4109      4112
      4108      4106      4109      4110      4108      4106      4109      4111
      4108      4106      4109      4112      4110      4109      4112      4113
      4110      4109      4112      4114      4110      4109      4112      4115
      4111      4109      4112      4113      4111      4109      4112      4114
      4111      4109      4112      4115      4116      4119      4122      4123
      4116      4119      4122      4124      4116      4119      4122      4125
      4117      4116      4119      4120      4117      4116      4119      4121
      4117      4116      4119      4122      4118      4116      4119      4120
      4118      4116      4119      4121      4118      4116      4119      4122
      4119      4122      4125      4126      4119      4122      4125      4127
      4119      4122      4125      4128      4120      4119      4122      4123
      4120      4119      4122      4124      4120      4119      4122      4125
      4121      4119      4122      4123      4121      4119      4122      4124
      4121      4119      4122      4125      4122      4125      4128      4129
      4122      4125      4128      4130      4122      4125      4128      4131
      4123      4122      4125      4126      4123      4122      4125      4127
      4123      4122      4125      4128      4124      4122      4125      4126
      4124      4122      4125      4127      4124      4122      4125      4128
      4125      4128      4131      4132      4125      4128      4131      4133
      4125      4128      4131      4134      4126      4125      4128      4129
      4126      4125      4128      4130      4126      4125      4128      4131
      4127      4125      4128      4129      4127      4125      4128      4130
      4127      4125      4128      4131      4128      4131      4134      4135
      4128      4131      4134      4136      4128      4131      4134      4137
      4129      4128      4131      4132      4129      4128      4131      4133
      4129      4128      4131      4134      4130      4128      4131      4132
      4130      4128      4131      4133      4130      4128      4131      4134
      4131      4134      4137      4138      4131      4134      4137      4139
      4131      4134      4137      4140      4132      4131      4134      4135
      4132      4131      4134      4136      4132      4131      4134      4137
      4133      4131      4134      4135      4133      4131      4134      4136
      4133      4131      4134      4137      4134      4137      4140      4141
      4134      4137      4140      4142      4134      4137      4140      4143
      4135      4134      4137      4138      4135      4134      4137      4139
      4135      4134      4137      4140      4136      4134      4137      4138
      4136      4134      4137      4139      4136      4134      4137      4140
      4137      4140      4143      4144      4137      4140      4143      4145
      4137      4140      4143      4146      4138      4137      4140      4141
      4138      4137      4140      4142      4138      4137      4140      4143
      4139      4137      4140      4141      4139      4137      4140      4142
      4139      4137      4140      4143      4140      4143      4146      4147
      4140      4143      4146      4148      4140      4143      4146      4149
      4141      4140      4143      4144      4141      4140      4143      4145
      4141      4140      4143      4146      4142      4140      4143      4144
      4142      4140      4143      4145      4142      4140      4143      4146
      4143      4146      4149      4150      4143      4146      4149      4151
      4143      4146      4149      4152      4144      4143      4146      4147
      4144      4143      4146      4148      4144      4143      4146      4149
      4145      4143      4146      4147      4145      4143      4146      4148
      4145      4143      4146      4149      4146      4149      4152      4153
      4146      4149      4152      4154      4146      4149      4152      4155
      4147      4146      4149      4150      4147      4146      4149      4151
      4147      4146      4149      4152      4148      4146      4149      4150
      4148      4146      4149      4151      4148      4146      4149      4152
      4149      4152      4155      4156      4149      4152      4155      4157
      4149      4152      4155      4158      4150      4149      4152      4153
      4150      4149      4152      4154      4150      4149      4152      4155
      4151      4149      4152      4153      4151      4149      4152      4154
      4151      4149      4152      4155      4153      4152      4155      4156
      4153      4152      4155      4157      4153      4152      4155      4158
      4154      4152      4155      4156      4154      4152      4155      4157
      4154      4152      4155      4158      4159      4163      4166      4167
      4159      4163      4166      4168      4159      4163      4166      4173
      4160      4159      4163      4164      4160      4159      4163      4165
      4160      4159      4163      4166      4161      4159      4163      4164
      4161      4159      4163      4165      4161      4159      4163      4166
      4162      4159      4163      4164      4162      4159      4163      4165
      4162      4159      4163      4166      4163      4166      4173      4169
      4164      4163      4166      4167      4164      4163      4166      4168
      4164      4163      4166      4173      4165      4163      4166      4167
      4165      4163      4166      4168      4165      4163      4166      4173
      4166      4173      4169      4170      4166      4173      4169      4171
      4166      4173      4169      4172      4167      4166      4173      4169
      4168      4166      4173      4169      4169      4172      4174      4175
      4169      4172      4174      4176      4169      4172      4174      4177
      4170      4169      4172      4174      4171      4169      4172      4174
      4172      4174      4177      4178      4172      4174      4177      4179
      4172      4174      4177      4185      4173      4169      4172      4174
      4174      4177      4179      4180      4174      4177      4185      4186
      4174      4177      4185      4187      4174      4177      4185      4188
      4175      4174      4177      4178      4175      4174      4177      4179
      4175      4174      4177      4185      4176      4174      4177      4178
      4176      4174      4177      4179      4176      4174      4177      4185
      4177      4179      4180      4181      4177      4179      4180      4182
      4177      4185      4188      4189      4178      4177      4179      4180
      4178      4177      4185      4186      4178      4177      4185      4187
      4178      4177      4185      4188      4179      4177      4185      4186
      4179      4177      4185      4187      4179      4177      4185      4188
      4179      4180      4182      4183      4179      4180      4182      4184
      4179      4180      4182      4194      4180      4179      4177      4185
      4180      4182      4194      4195      4180      4182      4194      4196
      4180      4182      4194      4197      4181      4180      4182      4183
      4181      4180      4182      4184      4181      4180      4182      4194
      4182      4194      4197      4198      4182      4194      4197      4199
      4182      4194      4197      4200      4183      4182      4194      4195
      4183      4182      4194      4196      4183      4182      4194      4197
      4184      4182      4194      4195      4184      4182      4194      4196
      4184      4182      4194      4197      4185      4188      4189      4190
      4185      4188      4189      4191      4186      4185      4188      4189
      4187      4185      4188      4189      4188      4189      4191      4192
      4188      4189      4191      4193      4188      4189      4191      4238
      4189      4191      4238      4239      4189      4191      4238      4240
      4189      4191      4238      4241      4190      4189      4191      4192
      4190      4189      4191      4193      4190      4189      4191      4238
      4191      4238      4241      4242      4191      4238      4241      4243
      4191      4238      4241      4244      4192      4191      4238      4239
      4192      4191      4238      4240      4192      4191      4238      4241
      4193      4191      4238      4239      4193      4191      4238      4240
      4193      4191      4238      4241      4194      4197      4200      4201
      4194      4197      4200      4202      4194      4197      4200      4203
      4195      4194      4197      4198      4195      4194      4197      4199
      4195      4194      4197      4200      4196      4194      4197      4198
      4196      4194      4197      4199      4196      4194      4197      4200
      4197      4200      4203      4204      4197      4200      4203      4205
      4197      4200      4203      4206      4198      4197      4200      4201
      4198      4197      4200      4202      4198      4197      4200      4203
      4199      4197      4200      4201      4199      4197      4200      4202
      4199      4197      4200      4203      4200      4203      4206      4207
      4200      4203      4206      4208      4200      4203      4206      4209
      4201      4200      4203      4204      4201      4200      4203      4205
      4201      4200      4203      4206      4202      4200      4203      4204
      4202      4200      4203      4205      4202      4200      4203      4206
      4203      4206      4209      4210      4203      4206      4209      4211
      4203      4206      4209      4212      4204      4203      4206      4207
      4204      4203      4206      4208      4204      4203      4206      4209
      4205      4203      4206      4207      4205      4203      4206      4208
      4205      4203      4206      4209      4206      4209      4212      4213
      4206      4209      4212      4214      4206      4209      4212      4217
      4207      4206      4209      4210      4207      4206      4209      4211
      4207      4206      4209      4212      4208      4206      4209      4210
      4208      4206      4209      4211      4208      4206      4209      4212
      4209      4212      4214      4215      4209      4212      4214      4216
      4209      4212      4214      4217      4209      4212      4217      4214
      4209      4212      4217      4218      4209      4212      4217      4219
      4210      4209      4212      4213      4210      4209      4212      4214
      4210      4209      4212      4217      4211      4209      4212      4213
      4211      4209      4212      4214      4211      4209      4212      4217
      4212      4214      4217      4218      4212      4214      4217      4219
      4212      4217      4214      4215      4212      4217      4214      4216
      4212      4217      4219      4220      4212      4217      4219      4221
      4212      4217      4219      4222      4213      4212      4214      4215
      4213      4212      4214      4216      4213      4212      4214      4217
      4213      4212      4217      4214      4213      4212      4217      4218
      4213      4212      4217      4219      4214      4212      4217      4218
      4214      4212      4217      4219      4214      4217      4219      4220
      4214      4217      4219      4221      4214      4217      4219      4222
      4215      4214      4212      4217      4215      4214      4217      4218
      4215      4214      4217      4219      4216      4214      4212      4217
      4216      4214      4217      4218      4216      4214      4217      4219
      4217      4219      4222      4223      4217      4219      4222      4224
      4217      4219      4222      4225      4218      4217      4219      4220
      4218      4217      4219      4221      4218      4217      4219      4222
      4219      4222      4225      4226      4219      4222      4225      4227
      4219      4222      4225      4228      4220      4219      4222      4223
      4220      4219      4222      4224      4220      4219      4222      4225
      4221      4219      4222      4223      4221      4219      4222      4224
      4221      4219      4222      4225      4222      4225      4228      4229
      4222      4225      4228      4230      4222      4225      4228      4231
      4223      4222      4225      4226      4223      4222      4225      4227
      4223      4222      4225      4228      4224      4222      4225      4226
      4224      4222      4225      4227      4224      4222      4225      4228
      4225      4228      4231      4232      4225      4228      4231      4233
      4225      4228      4231      4234      4226      4225      4228      4229
      4226      4225      4228      4230      4226      4225      4228      4231
      4227      4225      4228      4229      4227      4225      4228      4230
      4227      4225      4228      4231      4228      4231      4234      4235
      4228      4231      4234      4236      4228      4231      4234      4237
      4229      4228      4231      4232      4229      4228      4231      4233
      4229      4228      4231      4234      4230      4228      4231      4232
      4230      4228      4231      4233      4230      4228      4231      4234
      4232      4231      4234      4235      4232      4231      4234      4236
      4232      4231      4234      4237      4233      4231      4234      4235
      4233      4231      4234      4236      4233      4231      4234      4237
      4238      4241      4244      4245      4238      4241      4244      4246
      4238      4241      4244      4247      4239      4238      4241      4242
      4239      4238      4241      4243      4239      4238      4241      4244
      4240      4238      4241      4242      4240      4238      4241      4243
      4240      4238      4241      4244      4241      4244      4247      4248
      4241      4244      4247      4249      4241      4244      4247      4250
      4242      4241      4244      4245      4242      4241      4244      4246
      4242      4241      4244      4247      4243      4241      4244      4245
      4243      4241      4244      4246      4243      4241      4244      4247
      4244      4247      4250      4251      4244      4247      4250      4252
      4244      4247      4250      4253      4245      4244      4247      4248
      4245      4244      4247      4249      4245      4244      4247      4250
      4246      4244      4247      4248      4246      4244      4247      4249
      4246      4244      4247      4250      4247      4250      4253      4254
      4247      4250      4253      4255      4247      4250      4253      4256
      4248      4247      4250      4251      4248      4247      4250      4252
      4248      4247      4250      4253      4249      4247      4250      4251
      4249      4247      4250      4252      4249      4247      4250      4253
      4250      4253      4256      4257      4250      4253      4256      4258
      4250      4253      4256      4259      4251      4250      4253      4254
      4251      4250      4253      4255      4251      4250      4253      4256
      4252      4250      4253      4254      4252      4250      4253      4255
      4252      4250      4253      4256      4253      4256      4259      4260
      4253      4256      4259      4261      4253      4256      4259      4262
      4254      4253      4256      4257      4254      4253      4256      4258
      4254      4253      4256      4259      4255      4253      4256      4257
      4255      4253      4256      4258      4255      4253      4256      4259
      4256      4259      4262      4263      4256      4259      4262      4264
      4256      4259      4262      4265      4257      4256      4259      4260
      4257      4256      4259      4261      4257      4256      4259      4262
      4258      4256      4259      4260      4258      4256      4259      4261
      4258      4256      4259      4262      4259      4262      4265      4266
      4259      4262      4265      4267      4259      4262      4265      4268
      4260      4259      4262      4263      4260      4259      4262      4264
      4260      4259      4262      4265      4261      4259      4262      4263
      4261      4259      4262      4264      4261      4259      4262      4265
      4262      4265      4268      4269      4262      4265      4268      4270
      4262      4265      4268      4271      4263      4262      4265      4266
      4263      4262      4265      4267      4263      4262      4265      4268
      4264      4262      4265      4266      4264      4262      4265      4267
      4264      4262      4265      4268      4265      4268      4271      4272
      4265      4268      4271      4273      4265      4268      4271      4274
      4266      4265      4268      4269      4266      4265      4268      4270
      4266      4265      4268      4271      4267      4265      4268      4269
      4267      4265      4268      4270      4267      4265      4268      4271
      4268      4271      4274      4275      4268      4271      4274      4276
      4268      4271      4274      4277      4269      4268      4271      4272
      4269      4268      4271      4273      4269      4268      4271      4274
      4270      4268      4271      4272      4270      4268      4271      4273
      4270      4268      4271      4274      4271      4274      4277      4278
      4271      4274      4277      4279      4271      4274      4277      4280
      4272      4271      4274      4275      4272      4271      4274      4276
      4272      4271      4274      4277      4273      4271      4274      4275
      4273      4271      4274      4276      4273      4271      4274      4277
      4275      4274      4277      4278      4275      4274      4277      4279
      4275      4274      4277      4280      4276      4274      4277      4278
      4276      4274      4277      4279      4276      4274      4277      4280
      4281      4285      4288      4289      4281      4285      4288      4290
      4281      4285      4288      4295      4282      4281      4285      4286
      4282      4281      4285      4287      4282      4281      4285      4288
      4283      4281      4285      4286      4283      4281      4285      4287
      4283      4281      4285      4288      4284      4281      4285      4286
      4284      4281      4285      4287      4284      4281      4285      4288
      4285      4288      4295      4291      4286      4285      4288      4289
      4286      4285      4288      4290      4286      4285      4288      4295
      4287      4285      4288      4289      4287      4285      4288      4290
      4287      4285      4288      4295      4288      4295      4291      4292
      4288      4295      4291      4293      4288      4295      4291      4294
      4289      4288      4295      4291      4290      4288      4295      4291
      4291      4294      4296      4297      4291      4294      4296      4298
      4291      4294      4296      4299      4292      4291      4294      4296
      4293      4291      4294      4296      4294      4296      4299      4300
      4294      4296      4299      4301      4294      4296      4299      4307
      4295      4291      4294      4296      4296      4299      4301      4302
      4296      4299      4307      4308      4296      4299      4307      4309
      4296      4299      4307      4310      4297      4296      4299      4300
      4297      4296      4299      4301      4297      4296      4299      4307
      4298      4296      4299      4300      4298      4296      4299      4301
      4298      4296      4299      4307      4299      4301      4302      4303
      4299      4301      4302      4304      4299      4307      4310      4311
      4300      4299      4301      4302      4300      4299      4307      4308
      4300      4299      4307      4309      4300      4299      4307      4310
      4301      4299      4307      4308      4301      4299      4307      4309
      4301      4299      4307      4310      4301      4302      4304      4305
      4301      4302      4304      4306      4301      4302      4304      4316
      4302      4301      4299      4307      4302      4304      4316      4317
      4302      4304      4316      4318      4302      4304      4316      4319
      4303      4302      4304      4305      4303      4302      4304      4306
      4303      4302      4304      4316      4304      4316      4319      4320
      4304      4316      4319      4321      4304      4316      4319      4322
      4305      4304      4316      4317      4305      4304      4316      4318
      4305      4304      4316      4319      4306      4304      4316      4317
      4306      4304      4316      4318      4306      4304      4316      4319
      4307      4310      4311      4312      4307      4310      4311      4313
      4308      4307      4310      4311      4309      4307      4310      4311
      4310      4311      4313      4314      4310      4311      4313      4315
      4310      4311      4313      4357      4311      4313      4357      4358
      4311      4313      4357      4359      4311      4313      4357      4360
      4312      4311      4313      4314      4312      4311      4313      4315
      4312      4311      4313      4357      4313      4357      4360      4361
      4313      4357      4360      4362      4313      4357      4360      4363
      4314      4313      4357      4358      4314      4313      4357      4359
      4314      4313      4357      4360      4315      4313      4357      4358
      4315      4313      4357      4359      4315      4313      4357      4360
      4316      4319      4322      4323      4316      4319      4322      4324
      4316      4319      4322      4325      4317      4316      4319      4320
      4317      4316      4319      4321      4317      4316      4319      4322
      4318      4316      4319      4320      4318      4316      4319      4321
      4318      4316      4319      4322      4319      4322      4325      4326
      4319      4322      4325      4327      4319      4322      4325      4328
      4320      4319      4322      4323      4320      4319      4322      4324
      4320      4319      4322      4325      4321      4319      4322      4323
      4321      4319      4322      4324      4321      4319      4322      4325
      4322      4325      4328      4329      4322      4325      4328      4330
      4322      4325      4328      4331      4323      4322      4325      4326
      4323      4322      4325      4327      4323      4322      4325      4328
      4324      4322      4325      4326      4324      4322      4325      4327
      4324      4322      4325      4328      4325      4328      4331      4332
      4325      4328      4331      4333      4325      4328      4331      4334
      4326      4325      4328      4329      4326      4325      4328      4330
      4326      4325      4328      4331      4327      4325      4328      4329
      4327      4325      4328      4330      4327      4325      4328      4331
      4328      4331      4334      4335      4328      4331      4334      4336
      4329      4328      4331      4332      4329      4328      4331      4333
      4329      4328      4331      4334      4330      4328      4331      4332
      4330      4328      4331      4333      4330      4328      4331      4334
      4331      4334      4336      4337      4331      4334      4336      4338
      4332      4331      4334      4335      4332      4331      4334      4336
      4333      4331      4334      4335      4333      4331      4334      4336
      4334      4336      4338      4339      4334      4336      4338      4340
      4334      4336      4338      4341      4335      4334      4336      4337
      4335      4334      4336      4338      4336      4338      4341      4342
      4336      4338      4341      4343      4336      4338      4341      4344
      4337      4336      4338      4339      4337      4336      4338      4340
      4337      4336      4338      4341      4338      4341      4344      4345
      4338      4341      4344      4346      4338      4341      4344      4347
      4339      4338      4341      4342      4339      4338      4341      4343
      4339      4338      4341      4344      4340      4338      4341      4342
      4340      4338      4341      4343      4340      4338      4341      4344
      4341      4344      4347      4348      4341      4344      4347      4349
      4341      4344      4347      4350      4342      4341      4344      4345
      4342      4341      4344      4346      4342      4341      4344      4347
      4343      4341      4344      4345      4343      4341      4344      4346
      4343      4341      4344      4347      4344      4347      4350      4351
      4344      4347      4350      4352      4344      4347      4350      4353
      4345      4344      4347      4348      4345      4344      4347      4349
      4345      4344      4347      4350      4346      4344      4347      4348
      4346      4344      4347      4349      4346      4344      4347      4350
      4347      4350      4353      4354      4347      4350      4353      4355
      4347      4350      4353      4356      4348      4347      4350      4351
      4348      4347      4350      4352      4348      4347      4350      4353
      4349      4347      4350      4351      4349      4347      4350      4352
      4349      4347      4350      4353      4351      4350      4353      4354
      4351      4350      4353      4355      4351      4350      4353      4356
      4352      4350      4353      4354      4352      4350      4353      4355
      4352      4350      4353      4356      4357      4360      4363      4364
      4357      4360      4363      4365      4357      4360      4363      4366
      4358      4357      4360      4361      4358      4357      4360      4362
      4358      4357      4360      4363      4359      4357      4360      4361
      4359      4357      4360      4362      4359      4357      4360      4363
      4360      4363      4366      4367      4360      4363      4366      4368
      4360      4363      4366      4369      4361      4360      4363      4364
      4361      4360      4363      4365      4361      4360      4363      4366
      4362      4360      4363      4364      4362      4360      4363      4365
      4362      4360      4363      4366      4363      4366      4369      4370
      4363      4366      4369      4371      4363      4366      4369      4372
      4364      4363      4366      4367      4364      4363      4366      4368
      4364      4363      4366      4369      4365      4363      4366      4367
      4365      4363      4366      4368      4365      4363      4366      4369
      4366      4369      4372      4373      4366      4369      4372      4374
      4366      4369      4372      4375      4367      4366      4369      4370
      4367      4366      4369      4371      4367      4366      4369      4372
      4368      4366      4369      4370      4368      4366      4369      4371
      4368      4366      4369      4372      4369      4372      4375      4376
      4369      4372      4375      4377      4370      4369      4372      4373
      4370      4369      4372      4374      4370      4369      4372      4375
      4371      4369      4372      4373      4371      4369      4372      4374
      4371      4369      4372      4375      4372      4375      4377      4378
      4372      4375      4377      4379      4373      4372      4375      4376
      4373      4372      4375      4377      4374      4372      4375      4376
      4374      4372      4375      4377      4375      4377      4379      4380
      4375      4377      4379      4381      4375      4377      4379      4382
      4376      4375      4377      4378      4376      4375      4377      4379
      4377      4379      4382      4383      4377      4379      4382      4384
      4377      4379      4382      4385      4378      4377      4379      4380
      4378      4377      4379      4381      4378      4377      4379      4382
      4379      4382      4385      4386      4379      4382      4385      4387
      4379      4382      4385      4388      4380      4379      4382      4383
      4380      4379      4382      4384      4380      4379      4382      4385
      4381      4379      4382      4383      4381      4379      4382      4384
      4381      4379      4382      4385      4382      4385      4388      4389
      4382      4385      4388      4390      4382      4385      4388      4391
      4383      4382      4385      4386      4383      4382      4385      4387
      4383      4382      4385      4388      4384      4382      4385      4386
      4384      4382      4385      4387      4384      4382      4385      4388
      4385      4388      4391      4392      4385      4388      4391      4393
      4385      4388      4391      4394      4386      4385      4388      4389
      4386      4385      4388      4390      4386      4385      4388      4391
      4387      4385      4388      4389      4387      4385      4388      4390
      4387      4385      4388      4391      4388      4391      4394      4395
      4388      4391      4394      4396      4388      4391      4394      4397
      4389      4388      4391      4392      4389      4388      4391      4393
      4389      4388      4391      4394      4390      4388      4391      4392
      4390      4388      4391      4393      4390      4388      4391      4394
      4391      4394      4397      4398      4391      4394      4397      4399
      4391      4394      4397      4400      4392      4391      4394      4395
      4392      4391      4394      4396      4392      4391      4394      4397
      4393      4391      4394      4395      4393      4391      4394      4396
      4393      4391      4394      4397      4394      4397      4400      4401
      4394      4397      4400      4402      4394      4397      4400      4403
      4395      4394      4397      4398      4395      4394      4397      4399
      4395      4394      4397      4400      4396      4394      4397      4398
      4396      4394      4397      4399      4396      4394      4397      4400
      4398      4397      4400      4401      4398      4397      4400      4402
      4398      4397      4400      4403      4399      4397      4400      4401
      4399      4397      4400      4402      4399      4397      4400      4403
      4404      4408      4411      4412      4404      4408      4411      4413
      4404      4408      4411      4418      4405      4404      4408      4409
      4405      4404      4408      4410      4405      4404      4408      4411
      4406      4404      4408      4409      4406      4404      4408      4410
      4406      4404      4408      4411      4407      4404      4408      4409
      4407      4404      4408      4410      4407      4404      4408      4411
      4408      4411      4418      4414      4409      4408      4411      4412
      4409      4408      4411      4413      4409      4408      4411      4418
      4410      4408      4411      4412      4410      4408      4411      4413
      4410      4408      4411      4418      4411      4418      4414      4415
      4411      4418      4414      4416      4411      4418      4414      4417
      4412      4411      4418      4414      4413      4411      4418      4414
      4414      4417      4419      4420      4414      4417      4419      4421
      4414      4417      4419      4422      4415      4414      4417      4419
      4416      4414      4417      4419      4417      4419      4422      4423
      4417      4419      4422      4424      4417      4419      4422      4430
      4418      4414      4417      4419      4419      4422      4424      4425
      4419      4422      4430      4431      4419      4422      4430      4432
      4419      4422      4430      4433      4420      4419      4422      4423
      4420      4419      4422      4424      4420      4419      4422      4430
      4421      4419      4422      4423      4421      4419      4422      4424
      4421      4419      4422      4430      4422      4424      4425      4426
      4422      4424      4425      4427      4422      4430      4433      4434
      4423      4422      4424      4425      4423      4422      4430      4431
      4423      4422      4430      4432      4423      4422      4430      4433
      4424      4422      4430      4431      4424      4422      4430      4432
      4424      4422      4430      4433      4424      4425      4427      4428
      4424      4425      4427      4429      4424      4425      4427      4439
      4425      4424      4422      4430      4425      4427      4439      4440
      4425      4427      4439      4441      4425      4427      4439      4442
      4426      4425      4427      4428      4426      4425      4427      4429
      4426      4425      4427      4439      4427      4439      4442      4443
      4427      4439      4442      4444      4427      4439      4442      4445
      4428      4427      4439      4440      4428      4427      4439      4441
      4428      4427      4439      4442      4429      4427      4439      4440
      4429      4427      4439      4441      4429      4427      4439      4442
      4430      4433      4434      4435      4430      4433      4434      4436
      4431      4430      4433      4434      4432      4430      4433      4434
      4433      4434      4436      4437      4433      4434      4436      4438
      4433      4434      4436      4483      4434      4436      4483      4484
      4434      4436      4483      4485      4434      4436      4483      4486
      4435      4434      4436      4437      4435      4434      4436      4438
      4435      4434      4436      4483      4436      4483      4486      4487
      4436      4483      4486      4488      4436      4483      4486      4489
      4437      4436      4483      4484      4437      4436      4483      4485
      4437      4436      4483      4486      4438      4436      4483      4484
      4438      4436      4483      4485      4438      4436      4483      4486
      4439      4442      4445      4446      4439      4442      4445      4447
      4439      4442      4445      4448      4440      4439      4442      4443
      4440      4439      4442      4444      4440      4439      4442      4445
      4441      4439      4442      4443      4441      4439      4442      4444
      4441      4439      4442      4445      4442      4445      4448      4449
      4442      4445      4448      4450      4442      4445      4448      4451
      4443      4442      4445      4446      4443      4442      4445      4447
      4443      4442      4445      4448      4444      4442      4445      4446
      4444      4442      4445      4447      4444      4442      4445      4448
      4445      4448      4451      4452      4445      4448      4451      4453
      4445      4448      4451      4454      4446      4445      4448      4449
      4446      4445      4448      4450      4446      4445      4448      4451
      4447      4445      4448      4449      4447      4445      4448      4450
      4447      4445      4448      4451      4448      4451      4454      4455
      4448      4451      4454      4456      4448      4451      4454      4457
      4449      4448      4451      4452      4449      4448      4451      4453
      4449      4448      4451      4454      4450      4448      4451      4452
      4450      4448      4451      4453      4450      4448      4451      4454
      4451      4454      4457      4458      4451      4454      4457      4459
      4451      4454      4457      4462      4452      4451      4454      4455
      4452      4451      4454      4456      4452      4451      4454      4457
      4453      4451      4454      4455      4453      4451      4454      4456
      4453      4451      4454      4457      4454      4457      4459      4460
      4454      4457      4459      4461      4454      4457      4459      4462
      4454      4457      4462      4459      4454      4457      4462      4463
      4454      4457      4462      4464      4455      4454      4457      4458
      4455      4454      4457      4459      4455      4454      4457      4462
      4456      4454      4457      4458      4456      4454      4457      4459
      4456      4454      4457      4462      4457      4459      4462      4463
      4457      4459      4462      4464      4457      4462      4459      4460
      4457      4462      4459      4461      4457      4462      4464      4465
      4457      4462      4464      4466      4457      4462      4464      4467
      4458      4457      4459      4460      4458      4457      4459      4461
      4458      4457      4459      4462      4458      4457      4462      4459
      4458      4457      4462      4463      4458      4457      4462      4464
      4459      4457      4462      4463      4459      4457      4462      4464
      4459      4462      4464      4465      4459      4462      4464      4466
      4459      4462      4464      4467      4460      4459      4457      4462
      4460      4459      4462      4463      4460      4459      4462      4464
      4461      4459      4457      4462      4461      4459      4462      4463
      4461      4459      4462      4464      4462      4464      4467      4468
      4462      4464      4467      4469      4462      4464      4467      4470
      4463      4462      4464      4465      4463      4462      4464      4466
      4463      4462      4464      4467      4464      4467      4470      4471
      4464      4467      4470      4472      4464      4467      4470      4473
      4465      4464      4467      4468      4465      4464      4467      4469
      4465      4464      4467      4470      4466      4464      4467      4468
      4466      4464      4467      4469      4466      4464      4467      4470
      4467      4470      4473      4474      4467      4470      4473      4475
      4467      4470      4473      4476      4468      4467      4470      4471
      4468      4467      4470      4472      4468      4467      4470      4473
      4469      4467      4470      4471      4469      4467      4470      4472
      4469      4467      4470      4473      4470      4473      4476      4477
      4470      4473      4476      4478      4470      4473      4476      4479
      4471      4470      4473      4474      4471      4470      4473      4475
      4471      4470      4473      4476      4472      4470      4473      4474
      4472      4470      4473      4475      4472      4470      4473      4476
      4473      4476      4479      4480      4473      4476      4479      4481
      4473      4476      4479      4482      4474      4473      4476      4477
      4474      4473      4476      4478      4474      4473      4476      4479
      4475      4473      4476      4477      4475      4473      4476      4478
      4475      4473      4476      4479      4477      4476      4479      4480
      4477      4476      4479      4481      4477      4476      4479      4482
      4478      4476      4479      4480      4478      4476      4479      4481
      4478      4476      4479      4482      4483      4486      4489      4490
      4483      4486      4489      4491      4483      4486      4489      4492
      4484      4483      4486      4487      4484      4483      4486      4488
      4484      4483      4486      4489      4485      4483      4486      4487
      4485      4483      4486      4488      4485      4483      4486      4489
      4486      4489      4492      4493      4486      4489      4492      4494
      4486      4489      4492      4495      4487      4486      4489      4490
      4487      4486      4489      4491      4487      4486      4489      4492
      4488      4486      4489      4490      4488      4486      4489      4491
      4488      4486      4489      4492      4489      4492      4495      4496
      4489      4492      4495      4497      4489      4492      4495      4498
      4490      4489      4492      4493      4490      4489      4492      4494
      4490      4489      4492      4495      4491      4489      4492      4493
      4491      4489      4492      4494      4491      4489      4492      4495
      4492      4495      4498      4499      4492      4495      4498      4500
      4492      4495      4498      4501      4493      4492      4495      4496
      4493      4492      4495      4497      4493      4492      4495      4498
      4494      4492      4495      4496      4494      4492      4495      4497
      4494      4492      4495      4498      4495      4498      4501      4502
      4495      4498      4501      4503      4495      4498      4501      4504
      4496      4495      4498      4499      4496      4495      4498      4500
      4496      4495      4498      4501      4497      4495      4498      4499
      4497      4495      4498      4500      4497      4495      4498      4501
      4498      4501      4504      4505      4498      4501      4504      4506
      4498      4501      4504      4507      4499      4498      4501      4502
      4499      4498      4501      4503      4499      4498      4501      4504
      4500      4498      4501      4502      4500      4498      4501      4503
      4500      4498      4501      4504      4501      4504      4507      4508
      4501      4504      4507      4509      4501      4504      4507      4510
      4502      4501      4504      4505      4502      4501      4504      4506
      4502      4501      4504      4507      4503      4501      4504      4505
      4503      4501      4504      4506      4503      4501      4504      4507
      4504      4507      4510      4511      4504      4507      4510      4512
      4504      4507      4510      4513      4505      4504      4507      4508
      4505      4504      4507      4509      4505      4504      4507      4510
      4506      4504      4507      4508      4506      4504      4507      4509
      4506      4504      4507      4510      4507      4510      4513      4514
      4507      4510      4513      4515      4507      4510      4513      4516
      4508      4507      4510      4511      4508      4507      4510      4512
      4508      4507      4510      4513      4509      4507      4510      4511
      4509      4507      4510      4512      4509      4507      4510      4513
      4510      4513      4516      4517      4510      4513      4516      4518
      4510      4513      4516      4519      4511      4510      4513      4514
      4511      4510      4513      4515      4511      4510      4513      4516
      4512      4510      4513      4514      4512      4510      4513      4515
      4512      4510      4513      4516      4513      4516      4519      4520
      4513      4516      4519      4521      4513      4516      4519      4522
      4514      4513      4516      4517      4514      4513      4516      4518
      4514      4513      4516      4519      4515      4513      4516      4517
      4515      4513      4516      4518      4515      4513      4516      4519
      4516      4519      4522      4523      4516      4519      4522      4524
      4516      4519      4522      4525      4517      4516      4519      4520
      4517      4516      4519      4521      4517      4516      4519      4522
      4518      4516      4519      4520      4518      4516      4519      4521
      4518      4516      4519      4522      4520      4519      4522      4523
      4520      4519      4522      4524      4520      4519      4522      4525
      4521      4519      4522      4523      4521      4519      4522      4524
      4521      4519      4522      4525      4526      4530      4533      4534
      4526      4530      4533      4535      4526      4530      4533      4540
      4527      4526      4530      4531      4527      4526      4530      4532
      4527      4526      4530      4533      4528      4526      4530      4531
      4528      4526      4530      4532      4528      4526      4530      4533
      4529      4526      4530      4531      4529      4526      4530      4532
      4529      4526      4530      4533      4530      4533      4540      4536
      4531      4530      4533      4534      4531      4530      4533      4535
      4531      4530      4533      4540      4532      4530      4533      4534
      4532      4530      4533      4535      4532      4530      4533      4540
      4533      4540      4536      4537      4533      4540      4536      4538
      4533      4540      4536      4539      4534      4533      4540      4536
      4535      4533      4540      4536      4536      4539      4541      4542
      4536      4539      4541      4543      4536      4539      4541      4544
      4537      4536      4539      4541      4538      4536      4539      4541
      4539      4541      4544      4545      4539      4541      4544      4546
      4539      4541      4544      4552      4540      4536      4539      4541
      4541      4544      4546      4547      4541      4544      4552      4553
      4541      4544      4552      4554      4541      4544      4552      4555
      4542      4541      4544      4545      4542      4541      4544      4546
      4542      4541      4544      4552      4543      4541      4544      4545
      4543      4541      4544      4546      4543      4541      4544      4552
      4544      4546      4547      4548      4544      4546      4547      4549
      4544      4552      4555      4556      4545      4544      4546      4547
      4545      4544      4552      4553      4545      4544      4552      4554
      4545      4544      4552      4555      4546      4544      4552      4553
      4546      4544      4552      4554      4546      4544      4552      4555
      4546      4547      4549      4550      4546      4547      4549      4551
      4546      4547      4549      4561      4547      4546      4544      4552
      4547      4549      4561      4562      4547      4549      4561      4563
      4547      4549      4561      4564      4548      4547      4549      4550
      4548      4547      4549      4551      4548      4547      4549      4561
      4549      4561      4564      4565      4549      4561      4564      4566
      4549      4561      4564      4567      4550      4549      4561      4562
      4550      4549      4561      4563      4550      4549      4561      4564
      4551      4549      4561      4562      4551      4549      4561      4563
      4551      4549      4561      4564      4552      4555      4556      4557
      4552      4555      4556      4558      4553      4552      4555      4556
      4554      4552      4555      4556      4555      4556      4558      4559
      4555      4556      4558      4560      4555      4556      4558      4602
      4556      4558      4602      4603      4556      4558      4602      4604
      4556      4558      4602      4605      4557      4556      4558      4559
      4557      4556      4558      4560      4557      4556      4558      4602
      4558      4602      4605      4606      4558      4602      4605      4607
      4558      4602      4605      4608      4559      4558      4602      4603
      4559      4558      4602      4604      4559      4558      4602      4605
      4560      4558      4602      4603      4560      4558      4602      4604
      4560      4558      4602      4605      4561      4564      4567      4568
      4561      4564      4567      4569      4561      4564      4567      4570
      4562      4561      4564      4565      4562      4561      4564      4566
      4562      4561      4564      4567      4563      4561      4564      4565
      4563      4561      4564      4566      4563      4561      4564      4567
      4564      4567      4570      4571      4564      4567      4570      4572
      4564      4567      4570      4573      4565      4564      4567      4568
      4565      4564      4567      4569      4565      4564      4567      4570
      4566      4564      4567      4568      4566      4564      4567      4569
      4566      4564      4567      4570      4567      4570      4573      4574
      4567      4570      4573      4575      4567      4570      4573      4576
      4568      4567      4570      4571      4568      4567      4570      4572
      4568      4567      4570      4573      4569      4567      4570      4571
      4569      4567      4570      4572      4569      4567      4570      4573
      4570      4573      4576      4577      4570      4573      4576      4578
      4570      4573      4576      4579      4571      4570      4573      4574
      4571      4570      4573      4575      4571      4570      4573      4576
      4572      4570      4573      4574      4572      4570      4573      4575
      4572      4570      4573      4576      4573      4576      4579      4580
      4573      4576      4579      4581      4574      4573      4576      4577
      4574      4573      4576      4578      4574      4573      4576      4579
      4575      4573      4576      4577      4575      4573      4576      4578
      4575      4573      4576      4579      4576      4579      4581      4582
      4576      4579      4581      4583      4577      4576      4579      4580
      4577      4576      4579      4581      4578      4576      4579      4580
      4578      4576      4579      4581      4579      4581      4583      4584
      4579      4581      4583      4585      4579      4581      4583      4586
      4580      4579      4581      4582      4580      4579      4581      4583
      4581      4583      4586      4587      4581      4583      4586      4588
      4581      4583      4586      4589      4582      4581      4583      4584
      4582      4581      4583      4585      4582      4581      4583      4586
      4583      4586      4589      4590      4583      4586      4589      4591
      4583      4586      4589      4592      4584      4583      4586      4587
      4584      4583      4586      4588      4584      4583      4586      4589
      4585      4583      4586      4587      4585      4583      4586      4588
      4585      4583      4586      4589      4586      4589      4592      4593
      4586      4589      4592      4594      4586      4589      4592      4595
      4587      4586      4589      4590      4587      4586      4589      4591
      4587      4586      4589      4592      4588      4586      4589      4590
      4588      4586      4589      4591      4588      4586      4589      4592
      4589      4592      4595      4596      4589      4592      4595      4597
      4589      4592      4595      4598      4590      4589      4592      4593
      4590      4589      4592      4594      4590      4589      4592      4595
      4591      4589      4592      4593      4591      4589      4592      4594
      4591      4589      4592      4595      4592      4595      4598      4599
      4592      4595      4598      4600      4592      4595      4598      4601
      4593      4592      4595      4596      4593      4592      4595      4597
      4593      4592      4595      4598      4594      4592      4595      4596
      4594      4592      4595      4597      4594      4592      4595      4598
      4596      4595      4598      4599      4596      4595      4598      4600
      4596      4595      4598      4601      4597      4595      4598      4599
      4597      4595      4598      4600      4597      4595      4598      4601
      4602      4605      4608      4609      4602      4605      4608      4610
      4602      4605      4608      4611      4603      4602      4605      4606
      4603      4602      4605      4607      4603      4602      4605      4608
      4604      4602      4605      4606      4604      4602      4605      4607
      4604      4602      4605      4608      4605      4608      4611      4612
      4605      4608      4611      4613      4605      4608      4611      4614
      4606      4605      4608      4609      4606      4605      4608      4610
      4606      4605      4608      4611      4607      4605      4608      4609
      4607      4605      4608      4610      4607      4605      4608      4611
      4608      4611      4614      4615      4608      4611      4614      4616
      4608      4611      4614      4617      4609      4608      4611      4612
      4609      4608      4611      4613      4609      4608      4611      4614
      4610      4608      4611      4612      4610      4608      4611      4613
      4610      4608      4611      4614      4611      4614      4617      4618
      4611      4614      4617      4619      4611      4614      4617      4620
      4612      4611      4614      4615      4612      4611      4614      4616
      4612      4611      4614      4617      4613      4611      4614      4615
      4613      4611      4614      4616      4613      4611      4614      4617
      4614      4617      4620      4621      4614      4617      4620      4622
      4615      4614      4617      4618      4615      4614      4617      4619
      4615      4614      4617      4620      4616      4614      4617      4618
      4616      4614      4617      4619      4616      4614      4617      4620
      4617      4620      4622      4623      4617      4620      4622      4624
      4618      4617      4620      4621      4618      4617      4620      4622
      4619      4617      4620      4621      4619      4617      4620      4622
      4620      4622      4624      4625      4620      4622      4624      4626
      4620      4622      4624      4627      4621      4620      4622      4623
      4621      4620      4622      4624      4622      4624      4627      4628
      4622      4624      4627      4629      4622      4624      4627      4630
      4623      4622      4624      4625      4623      4622      4624      4626
      4623      4622      4624      4627      4624      4627      4630      4631
      4624      4627      4630      4632      4624      4627      4630      4633
      4625      4624      4627      4628      4625      4624      4627      4629
      4625      4624      4627      4630      4626      4624      4627      4628
      4626      4624      4627      4629      4626      4624      4627      4630
      4627      4630      4633      4634      4627      4630      4633      4635
      4627      4630      4633      4636      4628      4627      4630      4631
      4628      4627      4630      4632      4628      4627      4630      4633
      4629      4627      4630      4631      4629      4627      4630      4632
      4629      4627      4630      4633      4630      4633      4636      4637
      4630      4633      4636      4638      4630      4633      4636      4639
      4631      4630      4633      4634      4631      4630      4633      4635
      4631      4630      4633      4636      4632      4630      4633      4634
      4632      4630      4633      4635      4632      4630      4633      4636
      4633      4636      4639      4640      4633      4636      4639      4641
      4633      4636      4639      4642      4634      4633      4636      4637
      4634      4633      4636      4638      4634      4633      4636      4639
      4635      4633      4636      4637      4635      4633      4636      4638
      4635      4633      4636      4639      4636      4639      4642      4643
      4636      4639      4642      4644      4636      4639      4642      4645
      4637      4636      4639      4640      4637      4636      4639      4641
      4637      4636      4639      4642      4638      4636      4639      4640
      4638      4636      4639      4641      4638      4636      4639      4642
      4639      4642      4645      4646      4639      4642      4645      4647
      4639      4642      4645      4648      4640      4639      4642      4643
      4640      4639      4642      4644      4640      4639      4642      4645
      4641      4639      4642      4643      4641      4639      4642      4644
      4641      4639      4642      4645      4643      4642      4645      4646
      4643      4642      4645      4647      4643      4642      4645      4648
      4644      4642      4645      4646      4644      4642      4645      4647
      4644      4642      4645      4648      4649      4653      4656      4657
      4649      4653      4656      4658      4649      4653      4656      4663
      4650      4649      4653      4654      4650      4649      4653      4655
      4650      4649      4653      4656      4651      4649      4653      4654
      4651      4649      4653      4655      4651      4649      4653      4656
      4652      4649      4653      4654      4652      4649      4653      4655
      4652      4649      4653      4656      4653      4656      4663      4659
      4654      4653      4656      4657      4654      4653      4656      4658
      4654      4653      4656      4663      4655      4653      4656      4657
      4655      4653      4656      4658      4655      4653      4656      4663
      4656      4663      4659      4660      4656      4663      4659      4661
      4656      4663      4659      4662      4657      4656      4663      4659
      4658      4656      4663      4659      4659      4662      4664      4665
      4659      4662      4664      4666      4659      4662      4664      4667
      4660      4659      4662      4664      4661      4659      4662      4664
      4662      4664      4667      4668      4662      4664      4667      4669
      4662      4664      4667      4675      4663      4659      4662      4664
      4664      4667      4669      4670      4664      4667      4675      4676
      4664      4667      4675      4677      4664      4667      4675      4678
      4665      4664      4667      4668      4665      4664      4667      4669
      4665      4664      4667      4675      4666      4664      4667      4668
      4666      4664      4667      4669      4666      4664      4667      4675
      4667      4669      4670      4671      4667      4669      4670      4672
      4667      4675      4678      4679      4668      4667      4669      4670
      4668      4667      4675      4676      4668      4667      4675      4677
      4668      4667      4675      4678      4669      4667      4675      4676
      4669      4667      4675      4677      4669      4667      4675      4678
      4669      4670      4672      4673      4669      4670      4672      4674
      4669      4670      4672      4684      4670      4669      4667      4675
      4670      4672      4684      4685      4670      4672      4684      4686
      4670      4672      4684      4687      4671      4670      4672      4673
      4671      4670      4672      4674      4671      4670      4672      4684
      4672      4684      4687      4688      4672      4684      4687      4689
      4672      4684      4687      4690      4673      4672      4684      4685
      4673      4672      4684      4686      4673      4672      4684      4687
      4674      4672      4684      4685      4674      4672      4684      4686
      4674      4672      4684      4687      4675      4678      4679      4680
      4675      4678      4679      4681      4676      4675      4678      4679
      4677      4675      4678      4679      4678      4679      4681      4682
      4678      4679      4681      4683      4678      4679      4681      4728
      4679      4681      4728      4729      4679      4681      4728      4730
      4679      4681      4728      4731      4680      4679      4681      4682
      4680      4679      4681      4683      4680      4679      4681      4728
      4681      4728      4731      4732      4681      4728      4731      4733
      4681      4728      4731      4734      4682      4681      4728      4729
      4682      4681      4728      4730      4682      4681      4728      4731
      4683      4681      4728      4729      4683      4681      4728      4730
      4683      4681      4728      4731      4684      4687      4690      4691
      4684      4687      4690      4692      4684      4687      4690      4693
      4685      4684      4687      4688      4685      4684      4687      4689
      4685      4684      4687      4690      4686      4684      4687      4688
      4686      4684      4687      4689      4686      4684      4687      4690
      4687      4690      4693      4694      4687      4690      4693      4695
      4687      4690      4693      4696      4688      4687      4690      4691
      4688      4687      4690      4692      4688      4687      4690      4693
      4689      4687      4690      4691      4689      4687      4690      4692
      4689      4687      4690      4693      4690      4693      4696      4697
      4690      4693      4696      4698      4690      4693      4696      4699
      4691      4690      4693      4694      4691      4690      4693      4695
      4691      4690      4693      4696      4692      4690      4693      4694
      4692      4690      4693      4695      4692      4690      4693      4696
      4693      4696      4699      4700      4693      4696      4699      4701
      4693      4696      4699      4702      4694      4693      4696      4697
      4694      4693      4696      4698      4694      4693      4696      4699
      4695      4693      4696      4697      4695      4693      4696      4698
      4695      4693      4696      4699      4696      4699      4702      4703
      4696      4699      4702      4704      4696      4699      4702      4707
      4697      4696      4699      4700      4697      4696      4699      4701
      4697      4696      4699      4702      4698      4696      4699      4700
      4698      4696      4699      4701      4698      4696      4699      4702
      4699      4702      4704      4705      4699      4702      4704      4706
      4699      4702      4704      4707      4699      4702      4707      4704
      4699      4702      4707      4708      4699      4702      4707      4709
      4700      4699      4702      4703      4700      4699      4702      4704
      4700      4699      4702      4707      4701      4699      4702      4703
      4701      4699      4702      4704      4701      4699      4702      4707
      4702      4704      4707      4708      4702      4704      4707      4709
      4702      4707      4704      4705      4702      4707      4704      4706
      4702      4707      4709      4710      4702      4707      4709      4711
      4702      4707      4709      4712      4703      4702      4704      4705
      4703      4702      4704      4706      4703      4702      4704      4707
      4703      4702      4707      4704      4703      4702      4707      4708
      4703      4702      4707      4709      4704      4702      4707      4708
      4704      4702      4707      4709      4704      4707      4709      4710
      4704      4707      4709      4711      4704      4707      4709      4712
      4705      4704      4702      4707      4705      4704      4707      4708
      4705      4704      4707      4709      4706      4704      4702      4707
      4706      4704      4707      4708      4706      4704      4707      4709
      4707      4709      4712      4713      4707      4709      4712      4714
      4707      4709      4712      4715      4708      4707      4709      4710
      4708      4707      4709      4711      4708      4707      4709      4712
      4709      4712      4715      4716      4709      4712      4715      4717
      4709      4712      4715      4718      4710      4709      4712      4713
      4710      4709      4712      4714      4710      4709      4712      4715
      4711      4709      4712      4713      4711      4709      4712      4714
      4711      4709      4712      4715      4712      4715      4718      4719
      4712      4715      4718      4720      4712      4715      4718      4721
      4713      4712      4715      4716      4713      4712      4715      4717
      4713      4712      4715      4718      4714      4712      4715      4716
      4714      4712      4715      4717      4714      4712      4715      4718
      4715      4718      4721      4722      4715      4718      4721      4723
      4715      4718      4721      4724      4716      4715      4718      4719
      4716      4715      4718      4720      4716      4715      4718      4721
      4717      4715      4718      4719      4717      4715      4718      4720
      4717      4715      4718      4721      4718      4721      4724      4725
      4718      4721      4724      4726      4718      4721      4724      4727
      4719      4718      4721      4722      4719      4718      4721      4723
      4719      4718      4721      4724      4720      4718      4721      4722
      4720      4718      4721      4723      4720      4718      4721      4724
      4722      4721      4724      4725      4722      4721      4724      4726
      4722      4721      4724      4727      4723      4721      4724      4725
      4723      4721      4724      4726      4723      4721      4724      4727
      4728      4731      4734      4735      4728      4731      4734      4736
      4728      4731      4734      4737      4729      4728      4731      4732
      4729      4728      4731      4733      4729      4728      4731      4734
      4730      4728      4731      4732      4730      4728      4731      4733
      4730      4728      4731      4734      4731      4734      4737      4738
      4731      4734      4737      4739      4731      4734      4737      4740
      4732      4731      4734      4735      4732      4731      4734      4736
      4732      4731      4734      4737      4733      4731      4734      4735
      4733      4731      4734      4736      4733      4731      4734      4737
      4734      4737      4740      4741      4734      4737      4740      4742
      4734      4737      4740      4743      4735      4734      4737      4738
      4735      4734      4737      4739      4735      4734      4737      4740
      4736      4734      4737      4738      4736      4734      4737      4739
      4736      4734      4737      4740      4737      4740      4743      4744
      4737      4740      4743      4745      4737      4740      4743      4746
      4738      4737      4740      4741      4738      4737      4740      4742
      4738      4737      4740      4743      4739      4737      4740      4741
      4739      4737      4740      4742      4739      4737      4740      4743
      4740      4743      4746      4747      4740      4743      4746      4748
      4740      4743      4746      4749      4741      4740      4743      4744
      4741      4740      4743      4745      4741      4740      4743      4746
      4742      4740      4743      4744      4742      4740      4743      4745
      4742      4740      4743      4746      4743      4746      4749      4750
      4743      4746      4749      4751      4743      4746      4749      4752
      4744      4743      4746      4747      4744      4743      4746      4748
      4744      4743      4746      4749      4745      4743      4746      4747
      4745      4743      4746      4748      4745      4743      4746      4749
      4746      4749      4752      4753      4746      4749      4752      4754
      4746      4749      4752      4755      4747      4746      4749      4750
      4747      4746      4749      4751      4747      4746      4749      4752
      4748      4746      4749      4750      4748      4746      4749      4751
      4748      4746      4749      4752      4749      4752      4755      4756
      4749      4752      4755      4757      4749      4752      4755      4758
      4750      4749      4752      4753      4750      4749      4752      4754
      4750      4749      4752      4755      4751      4749      4752      4753
      4751      4749      4752      4754      4751      4749      4752      4755
      4752      4755      4758      4759      4752      4755      4758      4760
      4752      4755      4758      4761      4753      4752      4755      4756
      4753      4752      4755      4757      4753      4752      4755      4758
      4754      4752      4755      4756      4754      4752      4755      4757
      4754      4752      4755      4758      4755      4758      4761      4762
      4755      4758      4761      4763      4755      4758      4761      4764
      4756      4755      4758      4759      4756      4755      4758      4760
      4756      4755      4758      4761      4757      4755      4758      4759
      4757      4755      4758      4760      4757      4755      4758      4761
      4758      4761      4764      4765      4758      4761      4764      4766
      4758      4761      4764      4767      4759      4758      4761      4762
      4759      4758      4761      4763      4759      4758      4761      4764
      4760      4758      4761      4762      4760      4758      4761      4763
      4760      4758      4761      4764      4761      4764      4767      4768
      4761      4764      4767      4769      4761      4764      4767      4770
      4762      4761      4764      4765      4762      4761      4764      4766
      4762      4761      4764      4767      4763      4761      4764      4765
      4763      4761      4764      4766      4763      4761      4764      4767
      4765      4764      4767      4768      4765      4764      4767      4769
      4765      4764      4767      4770      4766      4764      4767      4768
      4766      4764      4767      4769      4766      4764      4767      4770
      4771      4775      4778      4779      4771      4775      4778      4780
      4771      4775      4778      4785      4772      4771      4775      4776
      4772      4771      4775      4777      4772      4771      4775      4778
      4773      4771      4775      4776      4773      4771      4775      4777
      4773      4771      4775      4778      4774      4771      4775      4776
      4774      4771      4775      4777      4774      4771      4775      4778
      4775      4778      4785      4781      4776      4775      4778      4779
      4776      4775      4778      4780      4776      4775      4778      4785
      4777      4775      4778      4779      4777      4775      4778      4780
      4777      4775      4778      4785      4778      4785      4781      4782
      4778      4785      4781      4783      4778      4785      4781      4784
      4779      4778      4785      4781      4780      4778      4785      4781
      4781      4784      4786      4787      4781      4784      4786      4788
      4781      4784      4786      4789      4782      4781      4784      4786
      4783      4781      4784      4786      4784      4786      4789      4790
      4784      4786      4789      4791      4784      4786      4789      4797
      4785      4781      4784      4786      4786      4789      4791      4792
      4786      4789      4797      4798      4786      4789      4797      4799
      4786      4789      4797      4800      4787      4786      4789      4790
      4787      4786      4789      4791      4787      4786      4789      4797
      4788      4786      4789      4790      4788      4786      4789      4791
      4788      4786      4789      4797      4789      4791      4792      4793
      4789      4791      4792      4794      4789      4797      4800      4801
      4790      4789      4791      4792      4790      4789      4797      4798
      4790      4789      4797      4799      4790      4789      4797      4800
      4791      4789      4797      4798      4791      4789      4797      4799
      4791      4789      4797      4800      4791      4792      4794      4795
      4791      4792      4794      4796      4791      4792      4794      4806
      4792      4791      4789      4797      4792      4794      4806      4807
      4792      4794      4806      4808      4792      4794      4806      4809
      4793      4792      4794      4795      4793      4792      4794      4796
      4793      4792      4794      4806      4794      4806      4809      4810
      4794      4806      4809      4811      4794      4806      4809      4812
      4795      4794      4806      4807      4795      4794      4806      4808
      4795      4794      4806      4809      4796      4794      4806      4807
      4796      4794      4806      4808      4796      4794      4806      4809
      4797      4800      4801      4802      4797      4800      4801      4803
      4798      4797      4800      4801      4799      4797      4800      4801
      4800      4801      4803      4804      4800      4801      4803      4805
      4800      4801      4803      4850      4801      4803      4850      4851
      4801      4803      4850      4852      4801      4803      4850      4853
      4802      4801      4803      4804      4802      4801      4803      4805
      4802      4801      4803      4850      4803      4850      4853      4854
      4803      4850      4853      4855      4803      4850      4853      4856
      4804      4803      4850      4851      4804      4803      4850      4852
      4804      4803      4850      4853      4805      4803      4850      4851
      4805      4803      4850      4852      4805      4803      4850      4853
      4806      4809      4812      4813      4806      4809      4812      4814
      4806      4809      4812      4815      4807      4806      4809      4810
      4807      4806      4809      4811      4807      4806      4809      4812
      4808      4806      4809      4810      4808      4806      4809      4811
      4808      4806      4809      4812      4809      4812      4815      4816
      4809      4812      4815      4817      4809      4812      4815      4818
      4810      4809      4812      4813      4810      4809      4812      4814
      4810      4809      4812      4815      4811      4809      4812      4813
      4811      4809      4812      4814      4811      4809      4812      4815
      4812      4815      4818      4819      4812      4815      4818      4820
      4812      4815      4818      4821      4813      4812      4815      4816
      4813      4812      4815      4817      4813      4812      4815      4818
      4814      4812      4815      4816      4814      4812      4815      4817
      4814      4812      4815      4818      4815      4818      4821      4822
      4815      4818      4821      4823      4815      4818      4821      4824
      4816      4815      4818      4819      4816      4815      4818      4820
      4816      4815      4818      4821      4817      4815      4818      4819
      4817      4815      4818      4820      4817      4815      4818      4821
      4818      4821      4824      4825      4818      4821      4824      4826
      4818      4821      4824      4829      4819      4818      4821      4822
      4819      4818      4821      4823      4819      4818      4821      4824
      4820      4818      4821      4822      4820      4818      4821      4823
      4820      4818      4821      4824      4821      4824      4826      4827
      4821      4824      4826      4828      4821      4824      4826      4829
      4821      4824      4829      4826      4821      4824      4829      4830
      4821      4824      4829      4831      4822      4821      4824      4825
      4822      4821      4824      4826      4822      4821      4824      4829
      4823      4821      4824      4825      4823      4821      4824      4826
      4823      4821      4824      4829      4824      4826      4829      4830
      4824      4826      4829      4831      4824      4829      4826      4827
      4824      4829      4826      4828      4824      4829      4831      4832
      4824      4829      4831      4833      4824      4829      4831      4834
      4825      4824      4826      4827      4825      4824      4826      4828
      4825      4824      4826      4829      4825      4824      4829      4826
      4825      4824      4829      4830      4825      4824      4829      4831
      4826      4824      4829      4830      4826      4824      4829      4831
      4826      4829      4831      4832      4826      4829      4831      4833
      4826      4829      4831      4834      4827      4826      4824      4829
      4827      4826      4829      4830      4827      4826      4829      4831
      4828      4826      4824      4829      4828      4826      4829      4830
      4828      4826      4829      4831      4829      4831      4834      4835
      4829      4831      4834      4836      4829      4831      4834      4837
      4830      4829      4831      4832      4830      4829      4831      4833
      4830      4829      4831      4834      4831      4834      4837      4838
      4831      4834      4837      4839      4831      4834      4837      4840
      4832      4831      4834      4835      4832      4831      4834      4836
      4832      4831      4834      4837      4833      4831      4834      4835
      4833      4831      4834      4836      4833      4831      4834      4837
      4834      4837      4840      4841      4834      4837      4840      4842
      4834      4837      4840      4843      4835      4834      4837      4838
      4835      4834      4837      4839      4835      4834      4837      4840
      4836      4834      4837      4838      4836      4834      4837      4839
      4836      4834      4837      4840      4837      4840      4843      4844
      4837      4840      4843      4845      4837      4840      4843      4846
      4838      4837      4840      4841      4838      4837      4840      4842
      4838      4837      4840      4843      4839      4837      4840      4841
      4839      4837      4840      4842      4839      4837      4840      4843
      4840      4843      4846      4847      4840      4843      4846      4848
      4840      4843      4846      4849      4841      4840      4843      4844
      4841      4840      4843      4845      4841      4840      4843      4846
      4842      4840      4843      4844      4842      4840      4843      4845
      4842      4840      4843      4846      4844      4843      4846      4847
      4844      4843      4846      4848      4844      4843      4846      4849
      4845      4843      4846      4847      4845      4843      4846      4848
      4845      4843      4846      4849      4850      4853      4856      4857
      4850      4853      4856      4858      4850      4853      4856      4859
      4851      4850      4853      4854      4851      4850      4853      4855
      4851      4850      4853      4856      4852      4850      4853      4854
      4852      4850      4853      4855      4852      4850      4853      4856
      4853      4856      4859      4860      4853      4856      4859      4861
      4853      4856      4859      4862      4854      4853      4856      4857
      4854      4853      4856      4858      4854      4853      4856      4859
      4855      4853      4856      4857      4855      4853      4856      4858
      4855      4853      4856      4859      4856      4859      4862      4863
      4856      4859      4862      4864      4856      4859      4862      4865
      4857      4856      4859      4860      4857      4856      4859      4861
      4857      4856      4859      4862      4858      4856      4859      4860
      4858      4856      4859      4861      4858      4856      4859      4862
      4859      4862      4865      4866      4859      4862      4865      4867
      4859      4862      4865      4868      4860      4859      4862      4863
      4860      4859      4862      4864      4860      4859      4862      4865
      4861      4859      4862      4863      4861      4859      4862      4864
      4861      4859      4862      4865      4862      4865      4868      4869
      4862      4865      4868      4870      4862      4865      4868      4871
      4863      4862      4865      4866      4863      4862      4865      4867
      4863      4862      4865      4868      4864      4862      4865      4866
      4864      4862      4865      4867      4864      4862      4865      4868
      4865      4868      4871      4872      4865      4868      4871      4873
      4865      4868      4871      4874      4866      4865      4868      4869
      4866      4865      4868      4870      4866      4865      4868      4871
      4867      4865      4868      4869      4867      4865      4868      4870
      4867      4865      4868      4871      4868      4871      4874      4875
      4868      4871      4874      4876      4868      4871      4874      4877
      4869      4868      4871      4872      4869      4868      4871      4873
      4869      4868      4871      4874      4870      4868      4871      4872
      4870      4868      4871      4873      4870      4868      4871      4874
      4871      4874      4877      4878      4871      4874      4877      4879
      4871      4874      4877      4880      4872      4871      4874      4875
      4872      4871      4874      4876      4872      4871      4874      4877
      4873      4871      4874      4875      4873      4871      4874      4876
      4873      4871      4874      4877      4874      4877      4880      4881
      4874      4877      4880      4882      4874      4877      4880      4883
      4875      4874      4877      4878      4875      4874      4877      4879
      4875      4874      4877      4880      4876      4874      4877      4878
      4876      4874      4877      4879      4876      4874      4877      4880
      4877      4880      4883      4884      4877      4880      4883      4885
      4877      4880      4883      4886      4878      4877      4880      4881
      4878      4877      4880      4882      4878      4877      4880      4883
      4879      4877      4880      4881      4879      4877      4880      4882
      4879      4877      4880      4883      4880      4883      4886      4887
      4880      4883      4886      4888      4880      4883      4886      4889
      4881      4880      4883      4884      4881      4880      4883      4885
      4881      4880      4883      4886      4882      4880      4883      4884
      4882      4880      4883      4885      4882      4880      4883      4886
      4883      4886      4889      4890      4883      4886      4889      4891
      4883      4886      4889      4892      4884      4883      4886      4887
      4884      4883      4886      4888      4884      4883      4886      4889
      4885      4883      4886      4887      4885      4883      4886      4888
      4885      4883      4886      4889      4887      4886      4889      4890
      4887      4886      4889      4891      4887      4886      4889      4892
      4888      4886      4889      4890      4888      4886      4889      4891
      4888      4886      4889      4892      4893      4897      4900      4901
      4893      4897      4900      4902      4893      4897      4900      4907
      4894      4893      4897      4898      4894      4893      4897      4899
      4894      4893      4897      4900      4895      4893      4897      4898
      4895      4893      4897      4899      4895      4893      4897      4900
      4896      4893      4897      4898      4896      4893      4897      4899
      4896      4893      4897      4900      4897      4900      4907      4903
      4898      4897      4900      4901      4898      4897      4900      4902
      4898      4897      4900      4907      4899      4897      4900      4901
      4899      4897      4900      4902      4899      4897      4900      4907
      4900      4907      4903      4904      4900      4907      4903      4905
      4900      4907      4903      4906      4901      4900      4907      4903
      4902      4900      4907      4903      4903      4906      4908      4909
      4903      4906      4908      4910      4903      4906      4908      4911
      4904      4903      4906      4908      4905      4903      4906      4908
      4906      4908      4911      4912      4906      4908      4911      4913
      4906      4908      4911      4919      4907      4903      4906      4908
      4908      4911      4913      4914      4908      4911      4919      4920
      4908      4911      4919      4921      4908      4911      4919      4922
      4909      4908      4911      4912      4909      4908      4911      4913
      4909      4908      4911      4919      4910      4908      4911      4912
      4910      4908      4911      4913      4910      4908      4911      4919
      4911      4913      4914      4915      4911      4913      4914      4916
      4911      4919      4922      4923      4912      4911      4913      4914
      4912      4911      4919      4920      4912      4911      4919      4921
      4912      4911      4919      4922      4913      4911      4919      4920
      4913      4911      4919      4921      4913      4911      4919      4922
      4913      4914      4916      4917      4913      4914      4916      4918
      4913      4914      4916      4928      4914      4913      4911      4919
      4914      4916      4928      4929      4914      4916      4928      4930
      4914      4916      4928      4931      4915      4914      4916      4917
      4915      4914      4916      4918      4915      4914      4916      4928
      4916      4928      4931      4932      4916      4928      4931      4933
      4916      4928      4931      4934      4917      4916      4928      4929
      4917      4916      4928      4930      4917      4916      4928      4931
      4918      4916      4928      4929      4918      4916      4928      4930
      4918      4916      4928      4931      4919      4922      4923      4924
      4919      4922      4923      4925      4920      4919      4922      4923
      4921      4919      4922      4923      4922      4923      4925      4926
      4922      4923      4925      4927      4922      4923      4925      4972
      4923      4925      4972      4973      4923      4925      4972      4974
      4923      4925      4972      4975      4924      4923      4925      4926
      4924      4923      4925      4927      4924      4923      4925      4972
      4925      4972      4975      4976      4925      4972      4975      4977
      4925      4972      4975      4978      4926      4925      4972      4973
      4926      4925      4972      4974      4926      4925      4972      4975
      4927      4925      4972      4973      4927      4925      4972      4974
      4927      4925      4972      4975      4928      4931      4934      4935
      4928      4931      4934      4936      4928      4931      4934      4937
      4929      4928      4931      4932      4929      4928      4931      4933
      4929      4928      4931      4934      4930      4928      4931      4932
      4930      4928      4931      4933      4930      4928      4931      4934
      4931      4934      4937      4938      4931      4934      4937      4939
      4931      4934      4937      4940      4932      4931      4934      4935
      4932      4931      4934      4936      4932      4931      4934      4937
      4933      4931      4934      4935      4933      4931      4934      4936
      4933      4931      4934      4937      4934      4937      4940      4941
      4934      4937      4940      4942      4934      4937      4940      4943
      4935      4934      4937      4938      4935      4934      4937      4939
      4935      4934      4937      4940      4936      4934      4937      4938
      4936      4934      4937      4939      4936      4934      4937      4940
      4937      4940      4943      4944      4937      4940      4943      4945
      4937      4940      4943      4946      4938      4937      4940      4941
      4938      4937      4940      4942      4938      4937      4940      4943
      4939      4937      4940      4941      4939      4937      4940      4942
      4939      4937      4940      4943      4940      4943      4946      4947
      4940      4943      4946      4948      4940      4943      4946      4951
      4941      4940      4943      4944      4941      4940      4943      4945
      4941      4940      4943      4946      4942      4940      4943      4944
      4942      4940      4943      4945      4942      4940      4943      4946
      4943      4946      4948      4949      4943      4946      4948      4950
      4943      4946      4948      4951      4943      4946      4951      4948
      4943      4946      4951      4952      4943      4946      4951      4953
      4944      4943      4946      4947      4944      4943      4946      4948
      4944      4943      4946      4951      4945      4943      4946      4947
      4945      4943      4946      4948      4945      4943      4946      4951
      4946      4948      4951      4952      4946      4948      4951      4953
      4946      4951      4948      4949      4946      4951      4948      4950
      4946      4951      4953      4954      4946      4951      4953      4955
      4946      4951      4953      4956      4947      4946      4948      4949
      4947      4946      4948      4950      4947      4946      4948      4951
      4947      4946      4951      4948      4947      4946      4951      4952
      4947      4946      4951      4953      4948      4946      4951      4952
      4948      4946      4951      4953      4948      4951      4953      4954
      4948      4951      4953      4955      4948      4951      4953      4956
      4949      4948      4946      4951      4949      4948      4951      4952
      4949      4948      4951      4953      4950      4948      4946      4951
      4950      4948      4951      4952      4950      4948      4951      4953
      4951      4953      4956      4957      4951      4953      4956      4958
      4951      4953      4956      4959      4952      4951      4953      4954
      4952      4951      4953      4955      4952      4951      4953      4956
      4953      4956      4959      4960      4953      4956      4959      4961
      4953      4956      4959      4962      4954      4953      4956      4957
      4954      4953      4956      4958      4954      4953      4956      4959
      4955      4953      4956      4957      4955      4953      4956      4958
      4955      4953      4956      4959      4956      4959      4962      4963
      4956      4959      4962      4964      4956      4959      4962      4965
      4957      4956      4959      4960      4957      4956      4959      4961
      4957      4956      4959      4962      4958      4956      4959      4960
      4958      4956      4959      4961      4958      4956      4959      4962
      4959      4962      4965      4966      4959      4962      4965      4967
      4959      4962      4965      4968      4960      4959      4962      4963
      4960      4959      4962      4964      4960      4959      4962      4965
      4961      4959      4962      4963      4961      4959      4962      4964
      4961      4959      4962      4965      4962      4965      4968      4969
      4962      4965      4968      4970      4962      4965      4968      4971
      4963      4962      4965      4966      4963      4962      4965      4967
      4963      4962      4965      4968      4964      4962      4965      4966
      4964      4962      4965      4967      4964      4962      4965      4968
      4966      4965      4968      4969      4966      4965      4968      4970
      4966      4965      4968      4971      4967      4965      4968      4969
      4967      4965      4968      4970      4967      4965      4968      4971
      4972      4975      4978      4979      4972      4975      4978      4980
      4972      4975      4978      4981      4973      4972      4975      4976
      4973      4972      4975      4977      4973      4972      4975      4978
      4974      4972      4975      4976      4974      4972      4975      4977
      4974      4972      4975      4978      4975      4978      4981      4982
      4975      4978      4981      4983      4975      4978      4981      4984
      4976      4975      4978      4979      4976      4975      4978      4980
      4976      4975      4978      4981      4977      4975      4978      4979
      4977      4975      4978      4980      4977      4975      4978      4981
      4978      4981      4984      4985      4978      4981      4984      4986
      4978      4981      4984      4987      4979      4978      4981      4982
      4979      4978      4981      4983      4979      4978      4981      4984
      4980      4978      4981      4982      4980      4978      4981      4983
      4980      4978      4981      4984      4981      4984      4987      4988
      4981      4984      4987      4989      4981      4984      4987      4990
      4982      4981      4984      4985      4982      4981      4984      4986
      4982      4981      4984      4987      4983      4981      4984      4985
      4983      4981      4984      4986      4983      4981      4984      4987
      4984      4987      4990      4991      4984      4987      4990      4992
      4984      4987      4990      4993      4985      4984      4987      4988
      4985      4984      4987      4989      4985      4984      4987      4990
      4986      4984      4987      4988      4986      4984      4987      4989
      4986      4984      4987      4990      4987      4990      4993      4994
      4987      4990      4993      4995      4987      4990      4993      4996
      4988      4987      4990      4991      4988      4987      4990      4992
      4988      4987      4990      4993      4989      4987      4990      4991
      4989      4987      4990      4992      4989      4987      4990      4993
      4990      4993      4996      4997      4990      4993      4996      4998
      4990      4993      4996      4999      4991      4990      4993      4994
      4991      4990      4993      4995      4991      4990      4993      4996
      4992      4990      4993      4994      4992      4990      4993      4995
      4992      4990      4993      4996      4993      4996      4999      5000
      4993      4996      4999      5001      4993      4996      4999      5002
      4994      4993      4996      4997      4994      4993      4996      4998
      4994      4993      4996      4999      4995      4993      4996      4997
      4995      4993      4996      4998      4995      4993      4996      4999
      4996      4999      5002      5003      4996      4999      5002      5004
      4996      4999      5002      5005      4997      4996      4999      5000
      4997      4996      4999      5001      4997      4996      4999      5002
      4998      4996      4999      5000      4998      4996      4999      5001
      4998      4996      4999      5002      4999      5002      5005      5006
      4999      5002      5005      5007      4999      5002      5005      5008
      5000      4999      5002      5003      5000      4999      5002      5004
      5000      4999      5002      5005      5001      4999      5002      5003
      5001      4999      5002      5004      5001      4999      5002      5005
      5002      5005      5008      5009      5002      5005      5008      5010
      5002      5005      5008      5011      5003      5002      5005      5006
      5003      5002      5005      5007      5003      5002      5005      5008
      5004      5002      5005      5006      5004      5002      5005      5007
      5004      5002      5005      5008      5005      5008      5011      5012
      5005      5008      5011      5013      5005      5008      5011      5014
      5006      5005      5008      5009      5006      5005      5008      5010
      5006      5005      5008      5011      5007      5005      5008      5009
      5007      5005      5008      5010      5007      5005      5008      5011
      5009      5008      5011      5012      5009      5008      5011      5013
      5009      5008      5011      5014      5010      5008      5011      5012
      5010      5008      5011      5013      5010      5008      5011      5014
      5015      5021      5018      5019      5015      5021      5018      5020
      5015      5021      5018      5022      5015      5026      5028      5029
      5015      5026      5030      5031      5015      5026      5030      5032
      5015      5026      5030      5036      5016      5015      5021      5018
      5016      5015      5026      5027      5016      5015      5026      5028
      5016      5015      5026      5030      5017      5015      5021      5018
      5017      5015      5026      5027      5017      5015      5026      5028
      5017      5015      5026      5030      5018      5021      5015      5026
      5018      5022      5023      5024      5018      5022      5023      5025
      5018      5022      5023      5058      5019      5018      5022      5023
      5020      5018      5022      5023      5021      5015      5026      5027
      5021      5015      5026      5028      5021      5015      5026      5030
      5021      5018      5022      5023      5022      5023      5058      5059
      5022      5023      5058      5060      5022      5023      5058      5066
      5023      5058      5060      5061      5023      5058      5066      5067
      5023      5058      5066      5068      5023      5058      5066      5069
      5024      5023      5058      5059      5024      5023      5058      5060
      5024      5023      5058      5066      5025      5023      5058      5059
      5025      5023      5058      5060      5025      5023      5058      5066
      5026      5030      5036      5033      5027      5026      5028      5029
      5027      5026      5030      5031      5027      5026      5030      5032
      5027      5026      5030      5036      5028      5026      5030      5031
      5028      5026      5030      5032      5028      5026      5030      5036
      5029      5028      5026      5030      5030      5036      5033      5034
      5030      5036      5033      5035      5030      5036      5033      5037
      5031      5030      5036      5033      5032      5030      5036      5033
      5033      5037      5038      5039      5033      5037      5038      5040
      5033      5037      5038      5041      5034      5033      5037      5038
      5035      5033      5037      5038      5036      5033      5037      5038
      5037      5038      5041      5042      5037      5038      5041      5043
      5037      5038      5041      5049      5038      5041      5043      5044
      5038      5041      5049      5050      5038      5041      5049      5051
      5038      5041      5049      5052      5039      5038      5041      5042
      5039      5038      5041      5043      5039      5038      5041      5049
      5040      5038      5041      5042      5040      5038      5041      5043
      5040      5038      5041      5049      5041      5043      5044      5045
      5041      5043      5044      5046      5041      5049      5052      5053
      5042      5041      5043      5044      5042      5041      5049      5050
      5042      5041      5049      5051      5042      5041      5049      5052
      5043      5041      5049      5050      5043      5041      5049      5051
      5043      5041      5049      5052      5043      5044      5046      5047
      5043      5044      5046      5048      5043      5044      5046      5075
      5044      5043      5041      5049      5044      5046      5075      5076
      5044      5046      5075      5077      5044      5046      5075      5078
      5045      5044      5046      5047      5045      5044      5046      5048
      5045      5044      5046      5075      5046      5075      5078      5079
      5046      5075      5078      5080      5046      5075      5078      5081
      5047      5046      5075      5076      5047      5046      5075      5077
      5047      5046      5075      5078      5048      5046      5075      5076
      5048      5046      5075      5077      5048      5046      5075      5078
      5049      5052      5053      5054      5049      5052      5053      5055
      5050      5049      5052      5053      5051      5049      5052      5053
      5052      5053      5055      5056      5052      5053      5055      5057
      5052      5053      5055      5122      5053      5055      5122      5123
      5053      5055      5122      5124      5053      5055      5122      5125
      5054      5053      5055      5056      5054      5053      5055      5057
      5054      5053      5055      5122      5055      5122      5125      5126
      5055      5122      5125      5127      5055      5122      5125      5128
      5056      5055      5122      5123      5056      5055      5122      5124
      5056      5055      5122      5125      5057      5055      5122      5123
      5057      5055      5122      5124      5057      5055      5122      5125
      5058      5060      5061      5062      5058      5060      5061      5063
      5058      5066      5069      5070      5059      5058      5060      5061
      5059      5058      5066      5067      5059      5058      5066      5068
      5059      5058      5066      5069      5060      5058      5066      5067
      5060      5058      5066      5068      5060      5058      5066      5069
      5060      5061      5063      5064      5060      5061      5063      5065
      5060      5061      5063      5165      5061      5060      5058      5066
      5061      5063      5165      5166      5061      5063      5165      5167
      5061      5063      5165      5168      5062      5061      5063      5064
      5062      5061      5063      5065      5062      5061      5063      5165
      5063      5165      5168      5169      5063      5165      5168      5170
      5063      5165      5168      5171      5064      5063      5165      5166
      5064      5063      5165      5167      5064      5063      5165      5168
      5065      5063      5165      5166      5065      5063      5165      5167
      5065      5063      5165      5168      5066      5069      5070      5071
      5066      5069      5070      5072      5067      5066      5069      5070
      5068      5066      5069      5070      5069      5070      5072      5073
      5069      5070      5072      5074      5069      5070      5072      5212
      5070      5072      5212      5213      5070      5072      5212      5214
      5070      5072      5212      5215      5071      5070      5072      5073
      5071      5070      5072      5074      5071      5070      5072      5212
      5072      5212      5215      5216      5072      5212      5215      5217
      5072      5212      5215      5218      5073      5072      5212      5213
      5073      5072      5212      5214      5073      5072      5212      5215
      5074      5072      5212      5213      5074      5072      5212      5214
      5074      5072      5212      5215      5075      5078      5081      5082
      5075      5078      5081      5083      5075      5078      5081      5084
      5076      5075      5078      5079      5076      5075      5078      5080
      5076      5075      5078      5081      5077      5075      5078      5079
      5077      5075      5078      5080      5077      5075      5078      5081
      5078      5081      5084      5085      5078      5081      5084      5086
      5078      5081      5084      5087      5079      5078      5081      5082
      5079      5078      5081      5083      5079      5078      5081      5084
      5080      5078      5081      5082      5080      5078      5081      5083
      5080      5078      5081      5084      5081      5084      5087      5088
      5081      5084      5087      5089      5081      5084      5087      5090
      5082      5081      5084      5085      5082      5081      5084      5086
      5082      5081      5084      5087      5083      5081      5084      5085
      5083      5081      5084      5086      5083      5081      5084      5087
      5084      5087      5090      5091      5084      5087      5090      5092
      5084      5087      5090      5093      5085      5084      5087      5088
      5085      5084      5087      5089      5085      5084      5087      5090
      5086      5084      5087      5088      5086      5084      5087      5089
      5086      5084      5087      5090      5087      5090      5093      5094
      5087      5090      5093      5095      5087      5090      5093      5096
      5088      5087      5090      5091      5088      5087      5090      5092
      5088      5087      5090      5093      5089      5087      5090      5091
      5089      5087      5090      5092      5089      5087      5090      5093
      5090      5093      5096      5097      5090      5093      5096      5098
      5090      5093      5096      5099      5091      5090      5093      5094
      5091      5090      5093      5095      5091      5090      5093      5096
      5092      5090      5093      5094      5092      5090      5093      5095
      5092      5090      5093      5096      5093      5096      5099      5100
      5093      5096      5099      5101      5094      5093      5096      5097
      5094      5093      5096      5098      5094      5093      5096      5099
      5095      5093      5096      5097      5095      5093      5096      5098
      5095      5093      5096      5099      5096      5099      5101      5102
      5096      5099      5101      5103      5097      5096      5099      5100
      5097      5096      5099      5101      5098      5096      5099      5100
      5098      5096      5099      5101      5099      5101      5103      5104
      5099      5101      5103      5105      5099      5101      5103      5106
      5100      5099      5101      5102      5100      5099      5101      5103
      5101      5103      5106      5107      5101      5103      5106      5108
      5101      5103      5106      5109      5102      5101      5103      5104
      5102      5101      5103      5105      5102      5101      5103      5106
      5103      5106      5109      5110      5103      5106      5109      5111
      5103      5106      5109      5112      5104      5103      5106      5107
      5104      5103      5106      5108      5104      5103      5106      5109
      5105      5103      5106      5107      5105      5103      5106      5108
      5105      5103      5106      5109      5106      5109      5112      5113
      5106      5109      5112      5114      5106      5109      5112      5115
      5107      5106      5109      5110      5107      5106      5109      5111
      5107      5106      5109      5112      5108      5106      5109      5110
      5108      5106      5109      5111      5108      5106      5109      5112
      5109      5112      5115      5116      5109      5112      5115      5117
      5109      5112      5115      5118      5110      5109      5112      5113
      5110      5109      5112      5114      5110      5109      5112      5115
      5111      5109      5112      5113      5111      5109      5112      5114
      5111      5109      5112      5115      5112      5115      5118      5119
      5112      5115      5118      5120      5112      5115      5118      5121
      5113      5112      5115      5116      5113      5112      5115      5117
      5113      5112      5115      5118      5114      5112      5115      5116
      5114      5112      5115      5117      5114      5112      5115      5118
      5116      5115      5118      5119      5116      5115      5118      5120
      5116      5115      5118      5121      5117      5115      5118      5119
      5117      5115      5118      5120      5117      5115      5118      5121
      5122      5125      5128      5129      5122      5125      5128      5130
      5122      5125      5128      5131      5123      5122      5125      5126
      5123      5122      5125      5127      5123      5122      5125      5128
      5124      5122      5125      5126      5124      5122      5125      5127
      5124      5122      5125      5128      5125      5128      5131      5132
      5125      5128      5131      5133      5125      5128      5131      5134
      5126      5125      5128      5129      5126      5125      5128      5130
      5126      5125      5128      5131      5127      5125      5128      5129
      5127      5125      5128      5130      5127      5125      5128      5131
      5128      5131      5134      5135      5128      5131      5134      5136
      5128      5131      5134      5137      5129      5128      5131      5132
      5129      5128      5131      5133      5129      5128      5131      5134
      5130      5128      5131      5132      5130      5128      5131      5133
      5130      5128      5131      5134      5131      5134      5137      5138
      5131      5134      5137      5139      5131      5134      5137      5140
      5132      5131      5134      5135      5132      5131      5134      5136
      5132      5131      5134      5137      5133      5131      5134      5135
      5133      5131      5134      5136      5133      5131      5134      5137
      5134      5137      5140      5141      5134      5137      5140      5142
      5134      5137      5140      5143      5135      5134      5137      5138
      5135      5134      5137      5139      5135      5134      5137      5140
      5136      5134      5137      5138      5136      5134      5137      5139
      5136      5134      5137      5140      5137      5140      5143      5144
      5137      5140      5143      5145      5137      5140      5143      5146
      5138      5137      5140      5141      5138      5137      5140      5142
      5138      5137      5140      5143      5139      5137      5140      5141
      5139      5137      5140      5142      5139      5137      5140      5143
      5140      5143      5146      5147      5140      5143      5146      5148
      5140      5143      5146      5149      5141      5140      5143      5144
      5141      5140      5143      5145      5141      5140      5143      5146
      5142      5140      5143      5144      5142      5140      5143      5145
      5142      5140      5143      5146      5143      5146      5149      5150
      5143      5146      5149      5151      5143      5146      5149      5152
      5144      5143      5146      5147      5144      5143      5146      5148
      5144      5143      5146      5149      5145      5143      5146      5147
      5145      5143      5146      5148      5145      5143      5146      5149
      5146      5149      5152      5153      5146      5149      5152      5154
      5146      5149      5152      5155      5147      5146      5149      5150
      5147      5146      5149      5151      5147      5146      5149      5152
      5148      5146      5149      5150      5148      5146      5149      5151
      5148      5146      5149      5152      5149      5152      5155      5156
      5149      5152      5155      5157      5149      5152      5155      5158
      5150      5149      5152      5153      5150      5149      5152      5154
      5150      5149      5152      5155      5151      5149      5152      5153
      5151      5149      5152      5154      5151      5149      5152      5155
      5152      5155      5158      5159      5152      5155      5158      5160
      5152      5155      5158      5161      5153      5152      5155      5156
      5153      5152      5155      5157      5153      5152      5155      5158
      5154      5152      5155      5156      5154      5152      5155      5157
      5154      5152      5155      5158      5155      5158      5161      5162
      5155      5158      5161      5163      5155      5158      5161      5164
      5156      5155      5158      5159      5156      5155      5158      5160
      5156      5155      5158      5161      5157      5155      5158      5159
      5157      5155      5158      5160      5157      5155      5158      5161
      5159      5158      5161      5162      5159      5158      5161      5163
      5159      5158      5161      5164      5160      5158      5161      5162
      5160      5158      5161      5163      5160      5158      5161      5164
      5165      5168      5171      5172      5165      5168      5171      5173
      5165      5168      5171      5174      5166      5165      5168      5169
      5166      5165      5168      5170      5166      5165      5168      5171
      5167      5165      5168      5169      5167      5165      5168      5170
      5167      5165      5168      5171      5168      5171      5174      5175
      5168      5171      5174      5176      5168      5171      5174      5177
      5169      5168      5171      5172      5169      5168      5171      5173
      5169      5168      5171      5174      5170      5168      5171      5172
      5170      5168      5171      5173      5170      5168      5171      5174
      5171      5174      5177      5178      5171      5174      5177      5179
      5171      5174      5177      5180      5172      5171      5174      5175
      5172      5171      5174      5176      5172      5171      5174      5177
      5173      5171      5174      5175      5173      5171      5174      5176
      5173      5171      5174      5177      5174      5177      5180      5181
      5174      5177      5180      5182      5174      5177      5180      5183
      5175      5174      5177      5178      5175      5174      5177      5179
      5175      5174      5177      5180      5176      5174      5177      5178
      5176      5174      5177      5179      5176      5174      5177      5180
      5177      5180      5183      5184      5177      5180      5183      5185
      5177      5180      5183      5186      5178      5177      5180      5181
      5178      5177      5180      5182      5178      5177      5180      5183
      5179      5177      5180      5181      5179      5177      5180      5182
      5179      5177      5180      5183      5180      5183      5186      5187
      5180      5183      5186      5188      5180      5183      5186      5189
      5181      5180      5183      5184      5181      5180      5183      5185
      5181      5180      5183      5186      5182      5180      5183      5184
      5182      5180      5183      5185      5182      5180      5183      5186
      5183      5186      5189      5190      5183      5186      5189      5191
      5184      5183      5186      5187      5184      5183      5186      5188
      5184      5183      5186      5189      5185      5183      5186      5187
      5185      5183      5186      5188      5185      5183      5186      5189
      5186      5189      5191      5192      5186      5189      5191      5193
      5187      5186      5189      5190      5187      5186      5189      5191
      5188      5186      5189      5190      5188      5186      5189      5191
      5189      5191      5193      5194      5189      5191      5193      5195
      5189      5191      5193      5196      5190      5189      5191      5192
      5190      5189      5191      5193      5191      5193      5196      5197
      5191      5193      5196      5198      5191      5193      5196      5199
      5192      5191      5193      5194      5192      5191      5193      5195
      5192      5191      5193      5196      5193      5196      5199      5200
      5193      5196      5199      5201      5193      5196      5199      5202
      5194      5193      5196      5197      5194      5193      5196      5198
      5194      5193      5196      5199      5195      5193      5196      5197
      5195      5193      5196      5198      5195      5193      5196      5199
      5196      5199      5202      5203      5196      5199      5202      5204
      5196      5199      5202      5205      5197      5196      5199      5200
      5197      5196      5199      5201      5197      5196      5199      5202
      5198      5196      5199      5200      5198      5196      5199      5201
      5198      5196      5199      5202      5199      5202      5205      5206
      5199      5202      5205      5207      5199      5202      5205      5208
      5200      5199      5202      5203      5200      5199      5202      5204
      5200      5199      5202      5205      5201      5199      5202      5203
      5201      5199      5202      5204      5201      5199      5202      5205
      5202      5205      5208      5209      5202      5205      5208      5210
      5202      5205      5208      5211      5203      5202      5205      5206
      5203      5202      5205      5207      5203      5202      5205      5208
      5204      5202      5205      5206      5204      5202      5205      5207
      5204      5202      5205      5208      5206      5205      5208      5209
      5206      5205      5208      5210      5206      5205      5208      5211
      5207      5205      5208      5209      5207      5205      5208      5210
      5207      5205      5208      5211      5212      5215      5218      5219
      5212      5215      5218      5220      5212      5215      5218      5221
      5213      5212      5215      5216      5213      5212      5215      5217
      5213      5212      5215      5218      5214      5212      5215      5216
      5214      5212      5215      5217      5214      5212      5215      5218
      5215      5218      5221      5222      5215      5218      5221      5223
      5215      5218      5221      5224      5216      5215      5218      5219
      5216      5215      5218      5220      5216      5215      5218      5221
      5217      5215      5218      5219      5217      5215      5218      5220
      5217      5215      5218      5221      5218      5221      5224      5225
      5218      5221      5224      5226      5218      5221      5224      5227
      5219      5218      5221      5222      5219      5218      5221      5223
      5219      5218      5221      5224      5220      5218      5221      5222
      5220      5218      5221      5223      5220      5218      5221      5224
      5221      5224      5227      5228      5221      5224      5227      5229
      5221      5224      5227      5230      5222      5221      5224      5225
      5222      5221      5224      5226      5222      5221      5224      5227
      5223      5221      5224      5225      5223      5221      5224      5226
      5223      5221      5224      5227      5224      5227      5230      5231
      5224      5227      5230      5232      5224      5227      5230      5233
      5225      5224      5227      5228      5225      5224      5227      5229
      5225      5224      5227      5230      5226      5224      5227      5228
      5226      5224      5227      5229      5226      5224      5227      5230
      5227      5230      5233      5234      5227      5230      5233      5235
      5227      5230      5233      5236      5228      5227      5230      5231
      5228      5227      5230      5232      5228      5227      5230      5233
      5229      5227      5230      5231      5229      5227      5230      5232
      5229      5227      5230      5233      5230      5233      5236      5237
      5230      5233      5236      5238      5230      5233      5236      5239
      5231      5230      5233      5234      5231      5230      5233      5235
      5231      5230      5233      5236      5232      5230      5233      5234
      5232      5230      5233      5235      5232      5230      5233      5236
      5233      5236      5239      5240      5233      5236      5239      5241
      5233      5236      5239      5242      5234      5233      5236      5237
      5234      5233      5236      5238      5234      5233      5236      5239
      5235      5233      5236      5237      5235      5233      5236      5238
      5235      5233      5236      5239      5236      5239      5242      5243
      5236      5239      5242      5244      5236      5239      5242      5245
      5237      5236      5239      5240      5237      5236      5239      5241
      5237      5236      5239      5242      5238      5236      5239      5240
      5238      5236      5239      5241      5238      5236      5239      5242
      5239      5242      5245      5246      5239      5242      5245      5247
      5239      5242      5245      5248      5240      5239      5242      5243
      5240      5239      5242      5244      5240      5239      5242      5245
      5241      5239      5242      5243      5241      5239      5242      5244
      5241      5239      5242      5245      5242      5245      5248      5249
      5242      5245      5248      5250      5242      5245      5248      5251
      5243      5242      5245      5246      5243      5242      5245      5247
      5243      5242      5245      5248      5244      5242      5245      5246
      5244      5242      5245      5247      5244      5242      5245      5248
      5245      5248      5251      5252      5245      5248      5251      5253
      5245      5248      5251      5254      5246      5245      5248      5249
      5246      5245      5248      5250      5246      5245      5248      5251
      5247      5245      5248      5249      5247      5245      5248      5250
      5247      5245      5248      5251      5249      5248      5251      5252
      5249      5248      5251      5253      5249      5248      5251      5254
      5250      5248      5251      5252      5250      5248      5251      5253
      5250      5248      5251      5254      5255      5259      5262      5263
      5255      5259      5262      5264      5255      5259      5262      5269
      5256      5255      5259      5260      5256      5255      5259      5261
      5256      5255      5259      5262      5257      5255      5259      5260
      5257      5255      5259      5261      5257      5255      5259      5262
      5258      5255      5259      5260      5258      5255      5259      5261
      5258      5255      5259      5262      5259      5262      5269      5265
      5260      5259      5262      5263      5260      5259      5262      5264
      5260      5259      5262      5269      5261      5259      5262      5263
      5261      5259      5262      5264      5261      5259      5262      5269
      5262      5269      5265      5266      5262      5269      5265      5267
      5262      5269      5265      5268      5263      5262      5269      5265
      5264      5262      5269      5265      5265      5268      5270      5271
      5265      5268      5270      5272      5265      5268      5270      5273
      5266      5265      5268      5270      5267      5265      5268      5270
      5268      5270      5273      5274      5268      5270      5273      5275
      5268      5270      5273      5281      5269      5265      5268      5270
      5270      5273      5275      5276      5270      5273      5281      5282
      5270      5273      5281      5283      5270      5273      5281      5284
      5271      5270      5273      5274      5271      5270      5273      5275
      5271      5270      5273      5281      5272      5270      5273      5274
      5272      5270      5273      5275      5272      5270      5273      5281
      5273      5275      5276      5277      5273      5275      5276      5278
      5273      5281      5284      5285      5274      5273      5275      5276
      5274      5273      5281      5282      5274      5273      5281      5283
      5274      5273      5281      5284      5275      5273      5281      5282
      5275      5273      5281      5283      5275      5273      5281      5284
      5275      5276      5278      5279      5275      5276      5278      5280
      5275      5276      5278      5290      5276      5275      5273      5281
      5276      5278      5290      5291      5276      5278      5290      5292
      5276      5278      5290      5293      5277      5276      5278      5279
      5277      5276      5278      5280      5277      5276      5278      5290
      5278      5290      5293      5294      5278      5290      5293      5295
      5278      5290      5293      5296      5279      5278      5290      5291
      5279      5278      5290      5292      5279      5278      5290      5293
      5280      5278      5290      5291      5280      5278      5290      5292
      5280      5278      5290      5293      5281      5284      5285      5286
      5281      5284      5285      5287      5282      5281      5284      5285
      5283      5281      5284      5285      5284      5285      5287      5288
      5284      5285      5287      5289      5284      5285      5287      5334
      5285      5287      5334      5335      5285      5287      5334      5336
      5285      5287      5334      5337      5286      5285      5287      5288
      5286      5285      5287      5289      5286      5285      5287      5334
      5287      5334      5337      5338      5287      5334      5337      5339
      5287      5334      5337      5340      5288      5287      5334      5335
      5288      5287      5334      5336      5288      5287      5334      5337
      5289      5287      5334      5335      5289      5287      5334      5336
      5289      5287      5334      5337      5290      5293      5296      5297
      5290      5293      5296      5298      5290      5293      5296      5299
      5291      5290      5293      5294      5291      5290      5293      5295
      5291      5290      5293      5296      5292      5290      5293      5294
      5292      5290      5293      5295      5292      5290      5293      5296
      5293      5296      5299      5300      5293      5296      5299      5301
      5293      5296      5299      5302      5294      5293      5296      5297
      5294      5293      5296      5298      5294      5293      5296      5299
      5295      5293      5296      5297      5295      5293      5296      5298
      5295      5293      5296      5299      5296      5299      5302      5303
      5296      5299      5302      5304      5296      5299      5302      5305
      5297      5296      5299      5300      5297      5296      5299      5301
      5297      5296      5299      5302      5298      5296      5299      5300
      5298      5296      5299      5301      5298      5296      5299      5302
      5299      5302      5305      5306      5299      5302      5305      5307
      5299      5302      5305      5308      5300      5299      5302      5303
      5300      5299      5302      5304      5300      5299      5302      5305
      5301      5299      5302      5303      5301      5299      5302      5304
      5301      5299      5302      5305      5302      5305      5308      5309
      5302      5305      5308      5310      5302      5305      5308      5313
      5303      5302      5305      5306      5303      5302      5305      5307
      5303      5302      5305      5308      5304      5302      5305      5306
      5304      5302      5305      5307      5304      5302      5305      5308
      5305      5308      5310      5311      5305      5308      5310      5312
      5305      5308      5310      5313      5305      5308      5313      5310
      5305      5308      5313      5314      5305      5308      5313      5315
      5306      5305      5308      5309      5306      5305      5308      5310
      5306      5305      5308      5313      5307      5305      5308      5309
      5307      5305      5308      5310      5307      5305      5308      5313
      5308      5310      5313      5314      5308      5310      5313      5315
      5308      5313      5310      5311      5308      5313      5310      5312
      5308      5313      5315      5316      5308      5313      5315      5317
      5308      5313      5315      5318      5309      5308      5310      5311
      5309      5308      5310      5312      5309      5308      5310      5313
      5309      5308      5313      5310      5309      5308      5313      5314
      5309      5308      5313      5315      5310      5308      5313      5314
      5310      5308      5313      5315      5310      5313      5315      5316
      5310      5313      5315      5317      5310      5313      5315      5318
      5311      5310      5308      5313      5311      5310      5313      5314
      5311      5310      5313      5315      5312      5310      5308      5313
      5312      5310      5313      5314      5312      5310      5313      5315
      5313      5315      5318      5319      5313      5315      5318      5320
      5313      5315      5318      5321      5314      5313      5315      5316
      5314      5313      5315      5317      5314      5313      5315      5318
      5315      5318      5321      5322      5315      5318      5321      5323
      5315      5318      5321      5324      5316      5315      5318      5319
      5316      5315      5318      5320      5316      5315      5318      5321
      5317      5315      5318      5319      5317      5315      5318      5320
      5317      5315      5318      5321      5318      5321      5324      5325
      5318      5321      5324      5326      5318      5321      5324      5327
      5319      5318      5321      5322      5319      5318      5321      5323
      5319      5318      5321      5324      5320      5318      5321      5322
      5320      5318      5321      5323      5320      5318      5321      5324
      5321      5324      5327      5328      5321      5324      5327      5329
      5321      5324      5327      5330      5322      5321      5324      5325
      5322      5321      5324      5326      5322      5321      5324      5327
      5323      5321      5324      5325      5323      5321      5324      5326
      5323      5321      5324      5327      5324      5327      5330      5331
      5324      5327      5330      5332      5324      5327      5330      5333
      5325      5324      5327      5328      5325      5324      5327      5329
      5325      5324      5327      5330      5326      5324      5327      5328
      5326      5324      5327      5329      5326      5324      5327      5330
      5328      5327      5330      5331      5328      5327      5330      5332
      5328      5327      5330      5333      5329      5327      5330      5331
      5329      5327      5330      5332      5329      5327      5330      5333
      5334      5337      5340      5341      5334      5337      5340      5342
      5334      5337      5340      5343      5335      5334      5337      5338
      5335      5334      5337      5339      5335      5334      5337      5340
      5336      5334      5337      5338      5336      5334      5337      5339
      5336      5334      5337      5340      5337      5340      5343      5344
      5337      5340      5343      5345      5337      5340      5343      5346
      5338      5337      5340      5341      5338      5337      5340      5342
      5338      5337      5340      5343      5339      5337      5340      5341
      5339      5337      5340      5342      5339      5337      5340      5343
      5340      5343      5346      5347      5340      5343      5346      5348
      5340      5343      5346      5349      5341      5340      5343      5344
      5341      5340      5343      5345      5341      5340      5343      5346
      5342      5340      5343      5344      5342      5340      5343      5345
      5342      5340      5343      5346      5343      5346      5349      5350
      5343      5346      5349      5351      5343      5346      5349      5352
      5344      5343      5346      5347      5344      5343      5346      5348
      5344      5343      5346      5349      5345      5343      5346      5347
      5345      5343      5346      5348      5345      5343      5346      5349
      5346      5349      5352      5353      5346      5349      5352      5354
      5346      5349      5352      5355      5347      5346      5349      5350
      5347      5346      5349      5351      5347      5346      5349      5352
      5348      5346      5349      5350      5348      5346      5349      5351
      5348      5346      5349      5352      5349      5352      5355      5356
      5349      5352      5355      5357      5349      5352      5355      5358
      5350      5349      5352      5353      5350      5349      5352      5354
      5350      5349      5352      5355      5351      5349      5352      5353
      5351      5349      5352      5354      5351      5349      5352      5355
      5352      5355      5358      5359      5352      5355      5358      5360
      5352      5355      5358      5361      5353      5352      5355      5356
      5353      5352      5355      5357      5353      5352      5355      5358
      5354      5352      5355      5356      5354      5352      5355      5357
      5354      5352      5355      5358      5355      5358      5361      5362
      5355      5358      5361      5363      5355      5358      5361      5364
      5356      5355      5358      5359      5356      5355      5358      5360
      5356      5355      5358      5361      5357      5355      5358      5359
      5357      5355      5358      5360      5357      5355      5358      5361
      5358      5361      5364      5365      5358      5361      5364      5366
      5358      5361      5364      5367      5359      5358      5361      5362
      5359      5358      5361      5363      5359      5358      5361      5364
      5360      5358      5361      5362      5360      5358      5361      5363
      5360      5358      5361      5364      5361      5364      5367      5368
      5361      5364      5367      5369      5361      5364      5367      5370
      5362      5361      5364      5365      5362      5361      5364      5366
      5362      5361      5364      5367      5363      5361      5364      5365
      5363      5361      5364      5366      5363      5361      5364      5367
      5364      5367      5370      5371      5364      5367      5370      5372
      5364      5367      5370      5373      5365      5364      5367      5368
      5365      5364      5367      5369      5365      5364      5367      5370
      5366      5364      5367      5368      5366      5364      5367      5369
      5366      5364      5367      5370      5367      5370      5373      5374
      5367      5370      5373      5375      5367      5370      5373      5376
      5368      5367      5370      5371      5368      5367      5370      5372
      5368      5367      5370      5373      5369      5367      5370      5371
      5369      5367      5370      5372      5369      5367      5370      5373
      5371      5370      5373      5374      5371      5370      5373      5375
      5371      5370      5373      5376      5372      5370      5373      5374
      5372      5370      5373      5375      5372      5370      5373      5376
      5377      5381      5384      5385      5377      5381      5384      5386
      5377      5381      5384      5391      5378      5377      5381      5382
      5378      5377      5381      5383      5378      5377      5381      5384
      5379      5377      5381      5382      5379      5377      5381      5383
      5379      5377      5381      5384      5380      5377      5381      5382
      5380      5377      5381      5383      5380      5377      5381      5384
      5381      5384      5391      5387      5382      5381      5384      5385
      5382      5381      5384      5386      5382      5381      5384      5391
      5383      5381      5384      5385      5383      5381      5384      5386
      5383      5381      5384      5391      5384      5391      5387      5388
      5384      5391      5387      5389      5384      5391      5387      5390
      5385      5384      5391      5387      5386      5384      5391      5387
      5387      5390      5392      5393      5387      5390      5392      5394
      5387      5390      5392      5395      5388      5387      5390      5392
      5389      5387      5390      5392      5390      5392      5395      5396
      5390      5392      5395      5397      5390      5392      5395      5403
      5391      5387      5390      5392      5392      5395      5397      5398
      5392      5395      5403      5404      5392      5395      5403      5405
      5392      5395      5403      5406      5393      5392      5395      5396
      5393      5392      5395      5397      5393      5392      5395      5403
      5394      5392      5395      5396      5394      5392      5395      5397
      5394      5392      5395      5403      5395      5397      5398      5399
      5395      5397      5398      5400      5395      5403      5406      5407
      5396      5395      5397      5398      5396      5395      5403      5404
      5396      5395      5403      5405      5396      5395      5403      5406
      5397      5395      5403      5404      5397      5395      5403      5405
      5397      5395      5403      5406      5397      5398      5400      5401
      5397      5398      5400      5402      5397      5398      5400      5412
      5398      5397      5395      5403      5398      5400      5412      5413
      5398      5400      5412      5414      5398      5400      5412      5415
      5399      5398      5400      5401      5399      5398      5400      5402
      5399      5398      5400      5412      5400      5412      5415      5416
      5400      5412      5415      5417      5400      5412      5415      5418
      5401      5400      5412      5413      5401      5400      5412      5414
      5401      5400      5412      5415      5402      5400      5412      5413
      5402      5400      5412      5414      5402      5400      5412      5415
      5403      5406      5407      5408      5403      5406      5407      5409
      5404      5403      5406      5407      5405      5403      5406      5407
      5406      5407      5409      5410      5406      5407      5409      5411
      5406      5407      5409      5456      5407      5409      5456      5457
      5407      5409      5456      5458      5407      5409      5456      5459
      5408      5407      5409      5410      5408      5407      5409      5411
      5408      5407      5409      5456      5409      5456      5459      5460
      5409      5456      5459      5461      5409      5456      5459      5462
      5410      5409      5456      5457      5410      5409      5456      5458
      5410      5409      5456      5459      5411      5409      5456      5457
      5411      5409      5456      5458      5411      5409      5456      5459
      5412      5415      5418      5419      5412      5415      5418      5420
      5412      5415      5418      5421      5413      5412      5415      5416
      5413      5412      5415      5417      5413      5412      5415      5418
      5414      5412      5415      5416      5414      5412      5415      5417
      5414      5412      5415      5418      5415      5418      5421      5422
      5415      5418      5421      5423      5415      5418      5421      5424
      5416      5415      5418      5419      5416      5415      5418      5420
      5416      5415      5418      5421      5417      5415      5418      5419
      5417      5415      5418      5420      5417      5415      5418      5421
      5418      5421      5424      5425      5418      5421      5424      5426
      5418      5421      5424      5427      5419      5418      5421      5422
      5419      5418      5421      5423      5419      5418      5421      5424
      5420      5418      5421      5422      5420      5418      5421      5423
      5420      5418      5421      5424      5421      5424      5427      5428
      5421      5424      5427      5429      5421      5424      5427      5430
      5422      5421      5424      5425      5422      5421      5424      5426
      5422      5421      5424      5427      5423      5421      5424      5425
      5423      5421      5424      5426      5423      5421      5424      5427
      5424      5427      5430      5431      5424      5427      5430      5432
      5424      5427      5430      5435      5425      5424      5427      5428
      5425      5424      5427      5429      5425      5424      5427      5430
      5426      5424      5427      5428      5426      5424      5427      5429
      5426      5424      5427      5430      5427      5430      5432      5433
      5427      5430      5432      5434      5427      5430      5432      5435
      5427      5430      5435      5432      5427      5430      5435      5436
      5427      5430      5435      5437      5428      5427      5430      5431
      5428      5427      5430      5432      5428      5427      5430      5435
      5429      5427      5430      5431      5429      5427      5430      5432
      5429      5427      5430      5435      5430      5432      5435      5436
      5430      5432      5435      5437      5430      5435      5432      5433
      5430      5435      5432      5434      5430      5435      5437      5438
      5430      5435      5437      5439      5430      5435      5437      5440
      5431      5430      5432      5433      5431      5430      5432      5434
      5431      5430      5432      5435      5431      5430      5435      5432
      5431      5430      5435      5436      5431      5430      5435      5437
      5432      5430      5435      5436      5432      5430      5435      5437
      5432      5435      5437      5438      5432      5435      5437      5439
      5432      5435      5437      5440      5433      5432      5430      5435
      5433      5432      5435      5436      5433      5432      5435      5437
      5434      5432      5430      5435      5434      5432      5435      5436
      5434      5432      5435      5437      5435      5437      5440      5441
      5435      5437      5440      5442      5435      5437      5440      5443
      5436      5435      5437      5438      5436      5435      5437      5439
      5436      5435      5437      5440      5437      5440      5443      5444
      5437      5440      5443      5445      5437      5440      5443      5446
      5438      5437      5440      5441      5438      5437      5440      5442
      5438      5437      5440      5443      5439      5437      5440      5441
      5439      5437      5440      5442      5439      5437      5440      5443
      5440      5443      5446      5447      5440      5443      5446      5448
      5440      5443      5446      5449      5441      5440      5443      5444
      5441      5440      5443      5445      5441      5440      5443      5446
      5442      5440      5443      5444      5442      5440      5443      5445
      5442      5440      5443      5446      5443      5446      5449      5450
      5443      5446      5449      5451      5443      5446      5449      5452
      5444      5443      5446      5447      5444      5443      5446      5448
      5444      5443      5446      5449      5445      5443      5446      5447
      5445      5443      5446      5448      5445      5443      5446      5449
      5446      5449      5452      5453      5446      5449      5452      5454
      5446      5449      5452      5455      5447      5446      5449      5450
      5447      5446      5449      5451      5447      5446      5449      5452
      5448      5446      5449      5450      5448      5446      5449      5451
      5448      5446      5449      5452      5450      5449      5452      5453
      5450      5449      5452      5454      5450      5449      5452      5455
      5451      5449      5452      5453      5451      5449      5452      5454
      5451      5449      5452      5455      5456      5459      5462      5463
      5456      5459      5462      5464      5456      5459      5462      5465
      5457      5456      5459      5460      5457      5456      5459      5461
      5457      5456      5459      5462      5458      5456      5459      5460
      5458      5456      5459      5461      5458      5456      5459      5462
      5459      5462      5465      5466      5459      5462      5465      5467
      5459      5462      5465      5468      5460      5459      5462      5463
      5460      5459      5462      5464      5460      5459      5462      5465
      5461      5459      5462      5463      5461      5459      5462      5464
      5461      5459      5462      5465      5462      5465      5468      5469
      5462      5465      5468      5470      5462      5465      5468      5471
      5463      5462      5465      5466      5463      5462      5465      5467
      5463      5462      5465      5468      5464      5462      5465      5466
      5464      5462      5465      5467      5464      5462      5465      5468
      5465      5468      5471      5472      5465      5468      5471      5473
      5465      5468      5471      5474      5466      5465      5468      5469
      5466      5465      5468      5470      5466      5465      5468      5471
      5467      5465      5468      5469      5467      5465      5468      5470
      5467      5465      5468      5471      5468      5471      5474      5475
      5468      5471      5474      5476      5468      5471      5474      5477
      5469      5468      5471      5472      5469      5468      5471      5473
      5469      5468      5471      5474      5470      5468      5471      5472
      5470      5468      5471      5473      5470      5468      5471      5474
      5471      5474      5477      5478      5471      5474      5477      5479
      5471      5474      5477      5480      5472      5471      5474      5475
      5472      5471      5474      5476      5472      5471      5474      5477
      5473      5471      5474      5475      5473      5471      5474      5476
      5473      5471      5474      5477      5474      5477      5480      5481
      5474      5477      5480      5482      5474      5477      5480      5483
      5475      5474      5477      5478      5475      5474      5477      5479
      5475      5474      5477      5480      5476      5474      5477      5478
      5476      5474      5477      5479      5476      5474      5477      5480
      5477      5480      5483      5484      5477      5480      5483      5485
      5477      5480      5483      5486      5478      5477      5480      5481
      5478      5477      5480      5482      5478      5477      5480      5483
      5479      5477      5480      5481      5479      5477      5480      5482
      5479      5477      5480      5483      5480      5483      5486      5487
      5480      5483      5486      5488      5480      5483      5486      5489
      5481      5480      5483      5484      5481      5480      5483      5485
      5481      5480      5483      5486      5482      5480      5483      5484
      5482      5480      5483      5485      5482      5480      5483      5486
      5483      5486      5489      5490      5483      5486      5489      5491
      5483      5486      5489      5492      5484      5483      5486      5487
      5484      5483      5486      5488      5484      5483      5486      5489
      5485      5483      5486      5487      5485      5483      5486      5488
      5485      5483      5486      5489      5486      5489      5492      5493
      5486      5489      5492      5494      5486      5489      5492      5495
      5487      5486      5489      5490      5487      5486      5489      5491
      5487      5486      5489      5492      5488      5486      5489      5490
      5488      5486      5489      5491      5488      5486      5489      5492
      5489      5492      5495      5496      5489      5492      5495      5497
      5489      5492      5495      5498      5490      5489      5492      5493
      5490      5489      5492      5494      5490      5489      5492      5495
      5491      5489      5492      5493      5491      5489      5492      5494
      5491      5489      5492      5495      5493      5492      5495      5496
      5493      5492      5495      5497      5493      5492      5495      5498
      5494      5492      5495      5496      5494      5492      5495      5497
      5494      5492      5495      5498      5499      5503      5506      5507
      5499      5503      5506      5508      5499      5503      5506      5513
      5500      5499      5503      5504      5500      5499      5503      5505
      5500      5499      5503      5506      5501      5499      5503      5504
      5501      5499      5503      5505      5501      5499      5503      5506
      5502      5499      5503      5504      5502      5499      5503      5505
      5502      5499      5503      5506      5503      5506      5513      5509
      5504      5503      5506      5507      5504      5503      5506      5508
      5504      5503      5506      5513      5505      5503      5506      5507
      5505      5503      5506      5508      5505      5503      5506      5513
      5506      5513      5509      5510      5506      5513      5509      5511
      5506      5513      5509      5512      5507      5506      5513      5509
      5508      5506      5513      5509      5509      5512      5514      5515
      5509      5512      5514      5516      5509      5512      5514      5517
      5510      5509      5512      5514      5511      5509      5512      5514
      5512      5514      5517      5518      5512      5514      5517      5519
      5512      5514      5517      5525      5513      5509      5512      5514
      5514      5517      5519      5520      5514      5517      5525      5526
      5514      5517      5525      5527      5514      5517      5525      5528
      5515      5514      5517      5518      5515      5514      5517      5519
      5515      5514      5517      5525      5516      5514      5517      5518
      5516      5514      5517      5519      5516      5514      5517      5525
      5517      5519      5520      5521      5517      5519      5520      5522
      5517      5525      5528      5529      5518      5517      5519      5520
      5518      5517      5525      5526      5518      5517      5525      5527
      5518      5517      5525      5528      5519      5517      5525      5526
      5519      5517      5525      5527      5519      5517      5525      5528
      5519      5520      5522      5523      5519      5520      5522      5524
      5519      5520      5522      5534      5520      5519      5517      5525
      5520      5522      5534      5535      5520      5522      5534      5536
      5520      5522      5534      5537      5521      5520      5522      5523
      5521      5520      5522      5524      5521      5520      5522      5534
      5522      5534      5537      5538      5522      5534      5537      5539
      5522      5534      5537      5540      5523      5522      5534      5535
      5523      5522      5534      5536      5523      5522      5534      5537
      5524      5522      5534      5535      5524      5522      5534      5536
      5524      5522      5534      5537      5525      5528      5529      5530
      5525      5528      5529      5531      5526      5525      5528      5529
      5527      5525      5528      5529      5528      5529      5531      5532
      5528      5529      5531      5533      5528      5529      5531      5578
      5529      5531      5578      5579      5529      5531      5578      5580
      5529      5531      5578      5581      5530      5529      5531      5532
      5530      5529      5531      5533      5530      5529      5531      5578
      5531      5578      5581      5582      5531      5578      5581      5583
      5531      5578      5581      5584      5532      5531      5578      5579
      5532      5531      5578      5580      5532      5531      5578      5581
      5533      5531      5578      5579      5533      5531      5578      5580
      5533      5531      5578      5581      5534      5537      5540      5541
      5534      5537      5540      5542      5534      5537      5540      5543
      5535      5534      5537      5538      5535      5534      5537      5539
      5535      5534      5537      5540      5536      5534      5537      5538
      5536      5534      5537      5539      5536      5534      5537      5540
      5537      5540      5543      5544      5537      5540      5543      5545
      5537      5540      5543      5546      5538      5537      5540      5541
      5538      5537      5540      5542      5538      5537      5540      5543
      5539      5537      5540      5541      5539      5537      5540      5542
      5539      5537      5540      5543      5540      5543      5546      5547
      5540      5543      5546      5548      5540      5543      5546      5549
      5541      5540      5543      5544      5541      5540      5543      5545
      5541      5540      5543      5546      5542      5540      5543      5544
      5542      5540      5543      5545      5542      5540      5543      5546
      5543      5546      5549      5550      5543      5546      5549      5551
      5543      5546      5549      5552      5544      5543      5546      5547
      5544      5543      5546      5548      5544      5543      5546      5549
      5545      5543      5546      5547      5545      5543      5546      5548
      5545      5543      5546      5549      5546      5549      5552      5553
      5546      5549      5552      5554      5546      5549      5552      5557
      5547      5546      5549      5550      5547      5546      5549      5551
      5547      5546      5549      5552      5548      5546      5549      5550
      5548      5546      5549      5551      5548      5546      5549      5552
      5549      5552      5554      5555      5549      5552      5554      5556
      5549      5552      5554      5557      5549      5552      5557      5554
      5549      5552      5557      5558      5549      5552      5557      5559
      5550      5549      5552      5553      5550      5549      5552      5554
      5550      5549      5552      5557      5551      5549      5552      5553
      5551      5549      5552      5554      5551      5549      5552      5557
      5552      5554      5557      5558      5552      5554      5557      5559
      5552      5557      5554      5555      5552      5557      5554      5556
      5552      5557      5559      5560      5552      5557      5559      5561
      5552      5557      5559      5562      5553      5552      5554      5555
      5553      5552      5554      5556      5553      5552      5554      5557
      5553      5552      5557      5554      5553      5552      5557      5558
      5553      5552      5557      5559      5554      5552      5557      5558
      5554      5552      5557      5559      5554      5557      5559      5560
      5554      5557      5559      5561      5554      5557      5559      5562
      5555      5554      5552      5557      5555      5554      5557      5558
      5555      5554      5557      5559      5556      5554      5552      5557
      5556      5554      5557      5558      5556      5554      5557      5559
      5557      5559      5562      5563      5557      5559      5562      5564
      5557      5559      5562      5565      5558      5557      5559      5560
      5558      5557      5559      5561      5558      5557      5559      5562
      5559      5562      5565      5566      5559      5562      5565      5567
      5559      5562      5565      5568      5560      5559      5562      5563
      5560      5559      5562      5564      5560      5559      5562      5565
      5561      5559      5562      5563      5561      5559      5562      5564
      5561      5559      5562      5565      5562      5565      5568      5569
      5562      5565      5568      5570      5562      5565      5568      5571
      5563      5562      5565      5566      5563      5562      5565      5567
      5563      5562      5565      5568      5564      5562      5565      5566
      5564      5562      5565      5567      5564      5562      5565      5568
      5565      5568      5571      5572      5565      5568      5571      5573
      5565      5568      5571      5574      5566      5565      5568      5569
      5566      5565      5568      5570      5566      5565      5568      5571
      5567      5565      5568      5569      5567      5565      5568      5570
      5567      5565      5568      5571      5568      5571      5574      5575
      5568      5571      5574      5576      5568      5571      5574      5577
      5569      5568      5571      5572      5569      5568      5571      5573
      5569      5568      5571      5574      5570      5568      5571      5572
      5570      5568      5571      5573      5570      5568      5571      5574
      5572      5571      5574      5575      5572      5571      5574      5576
      5572      5571      5574      5577      5573      5571      5574      5575
      5573      5571      5574      5576      5573      5571      5574      5577
      5578      5581      5584      5585      5578      5581      5584      5586
      5578      5581      5584      5587      5579      5578      5581      5582
      5579      5578      5581      5583      5579      5578      5581      5584
      5580      5578      5581      5582      5580      5578      5581      5583
      5580      5578      5581      5584      5581      5584      5587      5588
      5581      5584      5587      5589      5581      5584      5587      5590
      5582      5581      5584      5585      5582      5581      5584      5586
      5582      5581      5584      5587      5583      5581      5584      5585
      5583      5581      5584      5586      5583      5581      5584      5587
      5584      5587      5590      5591      5584      5587      5590      5592
      5584      5587      5590      5593      5585      5584      5587      5588
      5585      5584      5587      5589      5585      5584      5587      5590
      5586      5584      5587      5588      5586      5584      5587      5589
      5586      5584      5587      5590      5587      5590      5593      5594
      5587      5590      5593      5595      5587      5590      5593      5596
      5588      5587      5590      5591      5588      5587      5590      5592
      5588      5587      5590      5593      5589      5587      5590      5591
      5589      5587      5590      5592      5589      5587      5590      5593
      5590      5593      5596      5597      5590      5593      5596      5598
      5590      5593      5596      5599      5591      5590      5593      5594
      5591      5590      5593      5595      5591      5590      5593      5596
      5592      5590      5593      5594      5592      5590      5593      5595
      5592      5590      5593      5596      5593      5596      5599      5600
      5593      5596      5599      5601      5593      5596      5599      5602
      5594      5593      5596      5597      5594      5593      5596      5598
      5594      5593      5596      5599      5595      5593      5596      5597
      5595      5593      5596      5598      5595      5593      5596      5599
      5596      5599      5602      5603      5596      5599      5602      5604
      5596      5599      5602      5605      5597      5596      5599      5600
      5597      5596      5599      5601      5597      5596      5599      5602
      5598      5596      5599      5600      5598      5596      5599      5601
      5598      5596      5599      5602      5599      5602      5605      5606
      5599      5602      5605      5607      5599      5602      5605      5608
      5600      5599      5602      5603      5600      5599      5602      5604
      5600      5599      5602      5605      5601      5599      5602      5603
      5601      5599      5602      5604      5601      5599      5602      5605
      5602      5605      5608      5609      5602      5605      5608      5610
      5602      5605      5608      5611      5603      5602      5605      5606
      5603      5602      5605      5607      5603      5602      5605      5608
      5604      5602      5605      5606      5604      5602      5605      5607
      5604      5602      5605      5608      5605      5608      5611      5612
      5605      5608      5611      5613      5605      5608      5611      5614
      5606      5605      5608      5609      5606      5605      5608      5610
      5606      5605      5608      5611      5607      5605      5608      5609
      5607      5605      5608      5610      5607      5605      5608      5611
      5608      5611      5614      5615      5608      5611      5614      5616
      5608      5611      5614      5617      5609      5608      5611      5612
      5609      5608      5611      5613      5609      5608      5611      5614
      5610      5608      5611      5612      5610      5608      5611      5613
      5610      5608      5611      5614      5611      5614      5617      5618
      5611      5614      5617      5619      5611      5614      5617      5620
      5612      5611      5614      5615      5612      5611      5614      5616
      5612      5611      5614      5617      5613      5611      5614      5615
      5613      5611      5614      5616      5613      5611      5614      5617
      5615      5614      5617      5618      5615      5614      5617      5619
      5615      5614      5617      5620      5616      5614      5617      5618
      5616      5614      5617      5619      5616      5614      5617      5620
      5621      5625      5628      5629      5621      5625      5628      5630
      5621      5625      5628      5635      5622      5621      5625      5626
      5622      5621      5625      5627      5622      5621      5625      5628
      5623      5621      5625      5626      5623      5621      5625      5627
      5623      5621      5625      5628      5624      5621      5625      5626
      5624      5621      5625      5627      5624      5621      5625      5628
      5625      5628      5635      5631      5626      5625      5628      5629
      5626      5625      5628      5630      5626      5625      5628      5635
      5627      5625      5628      5629      5627      5625      5628      5630
      5627      5625      5628      5635      5628      5635      5631      5632
      5628      5635      5631      5633      5628      5635      5631      5634
      5629      5628      5635      5631      5630      5628      5635      5631
      5631      5634      5636      5637      5631      5634      5636      5638
      5631      5634      5636      5639      5632      5631      5634      5636
      5633      5631      5634      5636      5634      5636      5639      5640
      5634      5636      5639      5641      5634      5636      5639      5647
      5635      5631      5634      5636      5636      5639      5641      5642
      5636      5639      5647      5648      5636      5639      5647      5649
      5636      5639      5647      5650      5637      5636      5639      5640
      5637      5636      5639      5641      5637      5636      5639      5647
      5638      5636      5639      5640      5638      5636      5639      5641
      5638      5636      5639      5647      5639      5641      5642      5643
      5639      5641      5642      5644      5639      5647      5650      5651
      5640      5639      5641      5642      5640      5639      5647      5648
      5640      5639      5647      5649      5640      5639      5647      5650
      5641      5639      5647      5648      5641      5639      5647      5649
      5641      5639      5647      5650      5641      5642      5644      5645
      5641      5642      5644      5646      5641      5642      5644      5656
      5642      5641      5639      5647      5642      5644      5656      5657
      5642      5644      5656      5658      5642      5644      5656      5659
      5643      5642      5644      5645      5643      5642      5644      5646
      5643      5642      5644      5656      5644      5656      5659      5660
      5644      5656      5659      5661      5644      5656      5659      5662
      5645      5644      5656      5657      5645      5644      5656      5658
      5645      5644      5656      5659      5646      5644      5656      5657
      5646      5644      5656      5658      5646      5644      5656      5659
      5647      5650      5651      5652      5647      5650      5651      5653
      5648      5647      5650      5651      5649      5647      5650      5651
      5650      5651      5653      5654      5650      5651      5653      5655
      5650      5651      5653      5703      5651      5653      5703      5704
      5651      5653      5703      5705      5651      5653      5703      5706
      5652      5651      5653      5654      5652      5651      5653      5655
      5652      5651      5653      5703      5653      5703      5706      5707
      5653      5703      5706      5708      5653      5703      5706      5709
      5654      5653      5703      5704      5654      5653      5703      5705
      5654      5653      5703      5706      5655      5653      5703      5704
      5655      5653      5703      5705      5655      5653      5703      5706
      5656      5659      5662      5663      5656      5659      5662      5664
      5656      5659      5662      5665      5657      5656      5659      5660
      5657      5656      5659      5661      5657      5656      5659      5662
      5658      5656      5659      5660      5658      5656      5659      5661
      5658      5656      5659      5662      5659      5662      5665      5666
      5659      5662      5665      5667      5659      5662      5665      5668
      5660      5659      5662      5663      5660      5659      5662      5664
      5660      5659      5662      5665      5661      5659      5662      5663
      5661      5659      5662      5664      5661      5659      5662      5665
      5662      5665      5668      5669      5662      5665      5668      5670
      5662      5665      5668      5671      5663      5662      5665      5666
      5663      5662      5665      5667      5663      5662      5665      5668
      5664      5662      5665      5666      5664      5662      5665      5667
      5664      5662      5665      5668      5665      5668      5671      5672
      5665      5668      5671      5673      5665      5668      5671      5674
      5666      5665      5668      5669      5666      5665      5668      5670
      5666      5665      5668      5671      5667      5665      5668      5669
      5667      5665      5668      5670      5667      5665      5668      5671
      5668      5671      5674      5675      5668      5671      5674      5676
      5669      5668      5671      5672      5669      5668      5671      5673
      5669      5668      5671      5674      5670      5668      5671      5672
      5670      5668      5671      5673      5670      5668      5671      5674
      5671      5674      5676      5677      5671      5674      5676      5678
      5672      5671      5674      5675      5672      5671      5674      5676
      5673      5671      5674      5675      5673      5671      5674      5676
      5674      5676      5678      5679      5674      5676      5678      5680
      5674      5676      5678      5681      5675      5674      5676      5677
      5675      5674      5676      5678      5676      5678      5681      5682
      5676      5678      5681      5683      5676      5678      5681      5684
      5677      5676      5678      5679      5677      5676      5678      5680
      5677      5676      5678      5681      5678      5681      5684      5685
      5678      5681      5684      5686      5678      5681      5684      5687
      5679      5678      5681      5682      5679      5678      5681      5683
      5679      5678      5681      5684      5680      5678      5681      5682
      5680      5678      5681      5683      5680      5678      5681      5684
      5681      5684      5687      5688      5681      5684      5687      5689
      5681      5684      5687      5690      5682      5681      5684      5685
      5682      5681      5684      5686      5682      5681      5684      5687
      5683      5681      5684      5685      5683      5681      5684      5686
      5683      5681      5684      5687      5684      5687      5690      5691
      5684      5687      5690      5692      5684      5687      5690      5693
      5685      5684      5687      5688      5685      5684      5687      5689
      5685      5684      5687      5690      5686      5684      5687      5688
      5686      5684      5687      5689      5686      5684      5687      5690
      5687      5690      5693      5694      5687      5690      5693      5695
      5687      5690      5693      5696      5688      5687      5690      5691
      5688      5687      5690      5692      5688      5687      5690      5693
      5689      5687      5690      5691      5689      5687      5690      5692
      5689      5687      5690      5693      5690      5693      5696      5697
      5690      5693      5696      5698      5690      5693      5696      5699
      5691      5690      5693      5694      5691      5690      5693      5695
      5691      5690      5693      5696      5692      5690      5693      5694
      5692      5690      5693      5695      5692      5690      5693      5696
      5693      5696      5699      5700      5693      5696      5699      5701
      5693      5696      5699      5702      5694      5693      5696      5697
      5694      5693      5696      5698      5694      5693      5696      5699
      5695      5693      5696      5697      5695      5693      5696      5698
      5695      5693      5696      5699      5697      5696      5699      5700
      5697      5696      5699      5701      5697      5696      5699      5702
      5698      5696      5699      5700      5698      5696      5699      5701
      5698      5696      5699      5702      5703      5706      5709      5710
      5703      5706      5709      5711      5703      5706      5709      5712
      5704      5703      5706      5707      5704      5703      5706      5708
      5704      5703      5706      5709      5705      5703      5706      5707
      5705      5703      5706      5708      5705      5703      5706      5709
      5706      5709      5712      5713      5706      5709      5712      5714
      5706      5709      5712      5715      5707      5706      5709      5710
      5707      5706      5709      5711      5707      5706      5709      5712
      5708      5706      5709      5710      5708      5706      5709      5711
      5708      5706      5709      5712      5709      5712      5715      5716
      5709      5712      5715      5717      5709      5712      5715      5718
      5710      5709      5712      5713      5710      5709      5712      5714
      5710      5709      5712      5715      5711      5709      5712      5713
      5711      5709      5712      5714      5711      5709      5712      5715
      5712      5715      5718      5719      5712      5715      5718      5720
      5712      5715      5718      5721      5713      5712      5715      5716
      5713      5712      5715      5717      5713      5712      5715      5718
      5714      5712      5715      5716      5714      5712      5715      5717
      5714      5712      5715      5718      5715      5718      5721      5722
      5715      5718      5721      5723      5715      5718      5721      5724
      5716      5715      5718      5719      5716      5715      5718      5720
      5716      5715      5718      5721      5717      5715      5718      5719
      5717      5715      5718      5720      5717      5715      5718      5721
      5718      5721      5724      5725      5718      5721      5724      5726
      5718      5721      5724      5727      5719      5718      5721      5722
      5719      5718      5721      5723      5719      5718      5721      5724
      5720      5718      5721      5722      5720      5718      5721      5723
      5720      5718      5721      5724      5721      5724      5727      5728
      5721      5724      5727      5729      5721      5724      5727      5730
      5722      5721      5724      5725      5722      5721      5724      5726
      5722      5721      5724      5727      5723      5721      5724      5725
      5723      5721      5724      5726      5723      5721      5724      5727
      5724      5727      5730      5731      5724      5727      5730      5732
      5724      5727      5730      5733      5725      5724      5727      5728
      5725      5724      5727      5729      5725      5724      5727      5730
      5726      5724      5727      5728      5726      5724      5727      5729
      5726      5724      5727      5730      5727      5730      5733      5734
      5727      5730      5733      5735      5727      5730      5733      5736
      5728      5727      5730      5731      5728      5727      5730      5732
      5728      5727      5730      5733      5729      5727      5730      5731
      5729      5727      5730      5732      5729      5727      5730      5733
      5730      5733      5736      5737      5730      5733      5736      5738
      5730      5733      5736      5739      5731      5730      5733      5734
      5731      5730      5733      5735      5731      5730      5733      5736
      5732      5730      5733      5734      5732      5730      5733      5735
      5732      5730      5733      5736      5733      5736      5739      5740
      5733      5736      5739      5741      5733      5736      5739      5742
      5734      5733      5736      5737      5734      5733      5736      5738
      5734      5733      5736      5739      5735      5733      5736      5737
      5735      5733      5736      5738      5735      5733      5736      5739
      5736      5739      5742      5743      5736      5739      5742      5744
      5736      5739      5742      5745      5737      5736      5739      5740
      5737      5736      5739      5741      5737      5736      5739      5742
      5738      5736      5739      5740      5738      5736      5739      5741
      5738      5736      5739      5742      5740      5739      5742      5743
      5740      5739      5742      5744      5740      5739      5742      5745
      5741      5739      5742      5743      5741      5739      5742      5744
      5741      5739      5742      5745      5746      5750      5753      5754
      5746      5750      5753      5755      5746      5750      5753      5760
      5747      5746      5750      5751      5747      5746      5750      5752
      5747      5746      5750      5753      5748      5746      5750      5751
      5748      5746      5750      5752      5748      5746      5750      5753
      5749      5746      5750      5751      5749      5746      5750      5752
      5749      5746      5750      5753      5750      5753      5760      5756
      5751      5750      5753      5754      5751      5750      5753      5755
      5751      5750      5753      5760      5752      5750      5753      5754
      5752      5750      5753      5755      5752      5750      5753      5760
      5753      5760      5756      5757      5753      5760      5756      5758
      5753      5760      5756      5759      5754      5753      5760      5756
      5755      5753      5760      5756      5756      5759      5761      5762
      5756      5759      5761      5763      5756      5759      5761      5764
      5757      5756      5759      5761      5758      5756      5759      5761
      5759      5761      5764      5765      5759      5761      5764      5766
      5759      5761      5764      5772      5760      5756      5759      5761
      5761      5764      5766      5767      5761      5764      5772      5773
      5761      5764      5772      5774      5761      5764      5772      5775
      5762      5761      5764      5765      5762      5761      5764      5766
      5762      5761      5764      5772      5763      5761      5764      5765
      5763      5761      5764      5766      5763      5761      5764      5772
      5764      5766      5767      5768      5764      5766      5767      5769
      5764      5772      5775      5776      5765      5764      5766      5767
      5765      5764      5772      5773      5765      5764      5772      5774
      5765      5764      5772      5775      5766      5764      5772      5773
      5766      5764      5772      5774      5766      5764      5772      5775
      5766      5767      5769      5770      5766      5767      5769      5771
      5766      5767      5769      5781      5767      5766      5764      5772
      5767      5769      5781      5782      5767      5769      5781      5783
      5767      5769      5781      5784      5768      5767      5769      5770
      5768      5767      5769      5771      5768      5767      5769      5781
      5769      5781      5784      5785      5769      5781      5784      5786
      5769      5781      5784      5787      5770      5769      5781      5782
      5770      5769      5781      5783      5770      5769      5781      5784
      5771      5769      5781      5782      5771      5769      5781      5783
      5771      5769      5781      5784      5772      5775      5776      5777
      5772      5775      5776      5778      5773      5772      5775      5776
      5774      5772      5775      5776      5775      5776      5778      5779
      5775      5776      5778      5780      5775      5776      5778      5825
      5776      5778      5825      5826      5776      5778      5825      5827
      5776      5778      5825      5828      5777      5776      5778      5779
      5777      5776      5778      5780      5777      5776      5778      5825
      5778      5825      5828      5829      5778      5825      5828      5830
      5778      5825      5828      5831      5779      5778      5825      5826
      5779      5778      5825      5827      5779      5778      5825      5828
      5780      5778      5825      5826      5780      5778      5825      5827
      5780      5778      5825      5828      5781      5784      5787      5788
      5781      5784      5787      5789      5781      5784      5787      5790
      5782      5781      5784      5785      5782      5781      5784      5786
      5782      5781      5784      5787      5783      5781      5784      5785
      5783      5781      5784      5786      5783      5781      5784      5787
      5784      5787      5790      5791      5784      5787      5790      5792
      5784      5787      5790      5793      5785      5784      5787      5788
      5785      5784      5787      5789      5785      5784      5787      5790
      5786      5784      5787      5788      5786      5784      5787      5789
      5786      5784      5787      5790      5787      5790      5793      5794
      5787      5790      5793      5795      5787      5790      5793      5796
      5788      5787      5790      5791      5788      5787      5790      5792
      5788      5787      5790      5793      5789      5787      5790      5791
      5789      5787      5790      5792      5789      5787      5790      5793
      5790      5793      5796      5797      5790      5793      5796      5798
      5790      5793      5796      5799      5791      5790      5793      5794
      5791      5790      5793      5795      5791      5790      5793      5796
      5792      5790      5793      5794      5792      5790      5793      5795
      5792      5790      5793      5796      5793      5796      5799      5800
      5793      5796      5799      5801      5793      5796      5799      5804
      5794      5793      5796      5797      5794      5793      5796      5798
      5794      5793      5796      5799      5795      5793      5796      5797
      5795      5793      5796      5798      5795      5793      5796      5799
      5796      5799      5801      5802      5796      5799      5801      5803
      5796      5799      5801      5804      5796      5799      5804      5801
      5796      5799      5804      5805      5796      5799      5804      5806
      5797      5796      5799      5800      5797      5796      5799      5801
      5797      5796      5799      5804      5798      5796      5799      5800
      5798      5796      5799      5801      5798      5796      5799      5804
      5799      5801      5804      5805      5799      5801      5804      5806
      5799      5804      5801      5802      5799      5804      5801      5803
      5799      5804      5806      5807      5799      5804      5806      5808
      5799      5804      5806      5809      5800      5799      5801      5802
      5800      5799      5801      5803      5800      5799      5801      5804
      5800      5799      5804      5801      5800      5799      5804      5805
      5800      5799      5804      5806      5801      5799      5804      5805
      5801      5799      5804      5806      5801      5804      5806      5807
      5801      5804      5806      5808      5801      5804      5806      5809
      5802      5801      5799      5804      5802      5801      5804      5805
      5802      5801      5804      5806      5803      5801      5799      5804
      5803      5801      5804      5805      5803      5801      5804      5806
      5804      5806      5809      5810      5804      5806      5809      5811
      5804      5806      5809      5812      5805      5804      5806      5807
      5805      5804      5806      5808      5805      5804      5806      5809
      5806      5809      5812      5813      5806      5809      5812      5814
      5806      5809      5812      5815      5807      5806      5809      5810
      5807      5806      5809      5811      5807      5806      5809      5812
      5808      5806      5809      5810      5808      5806      5809      5811
      5808      5806      5809      5812      5809      5812      5815      5816
      5809      5812      5815      5817      5809      5812      5815      5818
      5810      5809      5812      5813      5810      5809      5812      5814
      5810      5809      5812      5815      5811      5809      5812      5813
      5811      5809      5812      5814      5811      5809      5812      5815
      5812      5815      5818      5819      5812      5815      5818      5820
      5812      5815      5818      5821      5813      5812      5815      5816
      5813      5812      5815      5817      5813      5812      5815      5818
      5814      5812      5815      5816      5814      5812      5815      5817
      5814      5812      5815      5818      5815      5818      5821      5822
      5815      5818      5821      5823      5815      5818      5821      5824
      5816      5815      5818      5819      5816      5815      5818      5820
      5816      5815      5818      5821      5817      5815      5818      5819
      5817      5815      5818      5820      5817      5815      5818      5821
      5819      5818      5821      5822      5819      5818      5821      5823
      5819      5818      5821      5824      5820      5818      5821      5822
      5820      5818      5821      5823      5820      5818      5821      5824
      5825      5828      5831      5832      5825      5828      5831      5833
      5825      5828      5831      5834      5826      5825      5828      5829
      5826      5825      5828      5830      5826      5825      5828      5831
      5827      5825      5828      5829      5827      5825      5828      5830
      5827      5825      5828      5831      5828      5831      5834      5835
      5828      5831      5834      5836      5828      5831      5834      5837
      5829      5828      5831      5832      5829      5828      5831      5833
      5829      5828      5831      5834      5830      5828      5831      5832
      5830      5828      5831      5833      5830      5828      5831      5834
      5831      5834      5837      5838      5831      5834      5837      5839
      5831      5834      5837      5840      5832      5831      5834      5835
      5832      5831      5834      5836      5832      5831      5834      5837
      5833      5831      5834      5835      5833      5831      5834      5836
      5833      5831      5834      5837      5834      5837      5840      5841
      5834      5837      5840      5842      5834      5837      5840      5843
      5835      5834      5837      5838      5835      5834      5837      5839
      5835      5834      5837      5840      5836      5834      5837      5838
      5836      5834      5837      5839      5836      5834      5837      5840
      5837      5840      5843      5844      5837      5840      5843      5845
      5837      5840      5843      5846      5838      5837      5840      5841
      5838      5837      5840      5842      5838      5837      5840      5843
      5839      5837      5840      5841      5839      5837      5840      5842
      5839      5837      5840      5843      5840      5843      5846      5847
      5840      5843      5846      5848      5840      5843      5846      5849
      5841      5840      5843      5844      5841      5840      5843      5845
      5841      5840      5843      5846      5842      5840      5843      5844
      5842      5840      5843      5845      5842      5840      5843      5846
      5843      5846      5849      5850      5843      5846      5849      5851
      5843      5846      5849      5852      5844      5843      5846      5847
      5844      5843      5846      5848      5844      5843      5846      5849
      5845      5843      5846      5847      5845      5843      5846      5848
      5845      5843      5846      5849      5846      5849      5852      5853
      5846      5849      5852      5854      5846      5849      5852      5855
      5847      5846      5849      5850      5847      5846      5849      5851
      5847      5846      5849      5852      5848      5846      5849      5850
      5848      5846      5849      5851      5848      5846      5849      5852
      5849      5852      5855      5856      5849      5852      5855      5857
      5849      5852      5855      5858      5850      5849      5852      5853
      5850      5849      5852      5854      5850      5849      5852      5855
      5851      5849      5852      5853      5851      5849      5852      5854
      5851      5849      5852      5855      5852      5855      5858      5859
      5852      5855      5858      5860      5852      5855      5858      5861
      5853      5852      5855      5856      5853      5852      5855      5857
      5853      5852      5855      5858      5854      5852      5855      5856
      5854      5852      5855      5857      5854      5852      5855      5858
      5855      5858      5861      5862      5855      5858      5861      5863
      5855      5858      5861      5864      5856      5855      5858      5859
      5856      5855      5858      5860      5856      5855      5858      5861
      5857      5855      5858      5859      5857      5855      5858      5860
      5857      5855      5858      5861      5859      5858      5861      5862
      5859      5858      5861      5863      5859      5858      5861      5864
      5860      5858      5861      5862      5860      5858      5861      5863
      5860      5858      5861      5864      5865      5869      5872      5873
      5865      5869      5872      5874      5865      5869      5872      5879
      5866      5865      5869      5870      5866      5865      5869      5871
      5866      5865      5869      5872      5867      5865      5869      5870
      5867      5865      5869      5871      5867      5865      5869      5872
      5868      5865      5869      5870      5868      5865      5869      5871
      5868      5865      5869      5872      5869      5872      5879      5875
      5870      5869      5872      5873      5870      5869      5872      5874
      5870      5869      5872      5879      5871      5869      5872      5873
      5871      5869      5872      5874      5871      5869      5872      5879
      5872      5879      5875      5876      5872      5879      5875      5877
      5872      5879      5875      5878      5873      5872      5879      5875
      5874      5872      5879      5875      5875      5878      5880      5881
      5875      5878      5880      5882      5875      5878      5880      5883
      5876      5875      5878      5880      5877      5875      5878      5880
      5878      5880      5883      5884      5878      5880      5883      5885
      5878      5880      5883      5891      5879      5875      5878      5880
      5880      5883      5885      5886      5880      5883      5891      5892
      5880      5883      5891      5893      5880      5883      5891      5894
      5881      5880      5883      5884      5881      5880      5883      5885
      5881      5880      5883      5891      5882      5880      5883      5884
      5882      5880      5883      5885      5882      5880      5883      5891
      5883      5885      5886      5887      5883      5885      5886      5888
      5883      5891      5894      5895      5884      5883      5885      5886
      5884      5883      5891      5892      5884      5883      5891      5893
      5884      5883      5891      5894      5885      5883      5891      5892
      5885      5883      5891      5893      5885      5883      5891      5894
      5885      5886      5888      5889      5885      5886      5888      5890
      5885      5886      5888      5900      5886      5885      5883      5891
      5886      5888      5900      5901      5886      5888      5900      5902
      5886      5888      5900      5903      5887      5886      5888      5889
      5887      5886      5888      5890      5887      5886      5888      5900
      5888      5900      5903      5904      5888      5900      5903      5905
      5888      5900      5903      5906      5889      5888      5900      5901
      5889      5888      5900      5902      5889      5888      5900      5903
      5890      5888      5900      5901      5890      5888      5900      5902
      5890      5888      5900      5903      5891      5894      5895      5896
      5891      5894      5895      5897      5892      5891      5894      5895
      5893      5891      5894      5895      5894      5895      5897      5898
      5894      5895      5897      5899      5894      5895      5897      5944
      5895      5897      5944      5945      5895      5897      5944      5946
      5895      5897      5944      5947      5896      5895      5897      5898
      5896      5895      5897      5899      5896      5895      5897      5944
      5897      5944      5947      5948      5897      5944      5947      5949
      5897      5944      5947      5950      5898      5897      5944      5945
      5898      5897      5944      5946      5898      5897      5944      5947
      5899      5897      5944      5945      5899      5897      5944      5946
      5899      5897      5944      5947      5900      5903      5906      5907
      5900      5903      5906      5908      5900      5903      5906      5909
      5901      5900      5903      5904      5901      5900      5903      5905
      5901      5900      5903      5906      5902      5900      5903      5904
      5902      5900      5903      5905      5902      5900      5903      5906
      5903      5906      5909      5910      5903      5906      5909      5911
      5903      5906      5909      5912      5904      5903      5906      5907
      5904      5903      5906      5908      5904      5903      5906      5909
      5905      5903      5906      5907      5905      5903      5906      5908
      5905      5903      5906      5909      5906      5909      5912      5913
      5906      5909      5912      5914      5906      5909      5912      5915
      5907      5906      5909      5910      5907      5906      5909      5911
      5907      5906      5909      5912      5908      5906      5909      5910
      5908      5906      5909      5911      5908      5906      5909      5912
      5909      5912      5915      5916      5909      5912      5915      5917
      5909      5912      5915      5918      5910      5909      5912      5913
      5910      5909      5912      5914      5910      5909      5912      5915
      5911      5909      5912      5913      5911      5909      5912      5914
      5911      5909      5912      5915      5912      5915      5918      5919
      5912      5915      5918      5920      5912      5915      5918      5923
      5913      5912      5915      5916      5913      5912      5915      5917
      5913      5912      5915      5918      5914      5912      5915      5916
      5914      5912      5915      5917      5914      5912      5915      5918
      5915      5918      5920      5921      5915      5918      5920      5922
      5915      5918      5920      5923      5915      5918      5923      5920
      5915      5918      5923      5924      5915      5918      5923      5925
      5916      5915      5918      5919      5916      5915      5918      5920
      5916      5915      5918      5923      5917      5915      5918      5919
      5917      5915      5918      5920      5917      5915      5918      5923
      5918      5920      5923      5924      5918      5920      5923      5925
      5918      5923      5920      5921      5918      5923      5920      5922
      5918      5923      5925      5926      5918      5923      5925      5927
      5918      5923      5925      5928      5919      5918      5920      5921
      5919      5918      5920      5922      5919      5918      5920      5923
      5919      5918      5923      5920      5919      5918      5923      5924
      5919      5918      5923      5925      5920      5918      5923      5924
      5920      5918      5923      5925      5920      5923      5925      5926
      5920      5923      5925      5927      5920      5923      5925      5928
      5921      5920      5918      5923      5921      5920      5923      5924
      5921      5920      5923      5925      5922      5920      5918      5923
      5922      5920      5923      5924      5922      5920      5923      5925
      5923      5925      5928      5929      5923      5925      5928      5930
      5923      5925      5928      5931      5924      5923      5925      5926
      5924      5923      5925      5927      5924      5923      5925      5928
      5925      5928      5931      5932      5925      5928      5931      5933
      5925      5928      5931      5934      5926      5925      5928      5929
      5926      5925      5928      5930      5926      5925      5928      5931
      5927      5925      5928      5929      5927      5925      5928      5930
      5927      5925      5928      5931      5928      5931      5934      5935
      5928      5931      5934      5936      5928      5931      5934      5937
      5929      5928      5931      5932      5929      5928      5931      5933
      5929      5928      5931      5934      5930      5928      5931      5932
      5930      5928      5931      5933      5930      5928      5931      5934
      5931      5934      5937      5938      5931      5934      5937      5939
      5931      5934      5937      5940      5932      5931      5934      5935
      5932      5931      5934      5936      5932      5931      5934      5937
      5933      5931      5934      5935      5933      5931      5934      5936
      5933      5931      5934      5937      5934      5937      5940      5941
      5934      5937      5940      5942      5934      5937      5940      5943
      5935      5934      5937      5938      5935      5934      5937      5939
      5935      5934      5937      5940      5936      5934      5937      5938
      5936      5934      5937      5939      5936      5934      5937      5940
      5938      5937      5940      5941      5938      5937      5940      5942
      5938      5937      5940      5943      5939      5937      5940      5941
      5939      5937      5940      5942      5939      5937      5940      5943
      5944      5947      5950      5951      5944      5947      5950      5952
      5944      5947      5950      5953      5945      5944      5947      5948
      5945      5944      5947      5949      5945      5944      5947      5950
      5946      5944      5947      5948      5946      5944      5947      5949
      5946      5944      5947      5950      5947      5950      5953      5954
      5947      5950      5953      5955      5947      5950      5953      5956
      5948      5947      5950      5951      5948      5947      5950      5952
      5948      5947      5950      5953      5949      5947      5950      5951
      5949      5947      5950      5952      5949      5947      5950      5953
      5950      5953      5956      5957      5950      5953      5956      5958
      5950      5953      5956      5959      5951      5950      5953      5954
      5951      5950      5953      5955      5951      5950      5953      5956
      5952      5950      5953      5954      5952      5950      5953      5955
      5952      5950      5953      5956      5953      5956      5959      5960
      5953      5956      5959      5961      5953      5956      5959      5962
      5954      5953      5956      5957      5954      5953      5956      5958
      5954      5953      5956      5959      5955      5953      5956      5957
      5955      5953      5956      5958      5955      5953      5956      5959
      5956      5959      5962      5963      5956      5959      5962      5964
      5956      5959      5962      5965      5957      5956      5959      5960
      5957      5956      5959      5961      5957      5956      5959      5962
      5958      5956      5959      5960      5958      5956      5959      5961
      5958      5956      5959      5962      5959      5962      5965      5966
      5959      5962      5965      5967      5959      5962      5965      5968
      5960      5959      5962      5963      5960      5959      5962      5964
      5960      5959      5962      5965      5961      5959      5962      5963
      5961      5959      5962      5964      5961      5959      5962      5965
      5962      5965      5968      5969      5962      5965      5968      5970
      5962      5965      5968      5971      5963      5962      5965      5966
      5963      5962      5965      5967      5963      5962      5965      5968
      5964      5962      5965      5966      5964      5962      5965      5967
      5964      5962      5965      5968      5965      5968      5971      5972
      5965      5968      5971      5973      5965      5968      5971      5974
      5966      5965      5968      5969      5966      5965      5968      5970
      5966      5965      5968      5971      5967      5965      5968      5969
      5967      5965      5968      5970      5967      5965      5968      5971
      5968      5971      5974      5975      5968      5971      5974      5976
      5968      5971      5974      5977      5969      5968      5971      5972
      5969      5968      5971      5973      5969      5968      5971      5974
      5970      5968      5971      5972      5970      5968      5971      5973
      5970      5968      5971      5974      5971      5974      5977      5978
      5971      5974      5977      5979      5971      5974      5977      5980
      5972      5971      5974      5975      5972      5971      5974      5976
      5972      5971      5974      5977      5973      5971      5974      5975
      5973      5971      5974      5976      5973      5971      5974      5977
      5974      5977      5980      5981      5974      5977      5980      5982
      5974      5977      5980      5983      5975      5974      5977      5978
      5975      5974      5977      5979      5975      5974      5977      5980
      5976      5974      5977      5978      5976      5974      5977      5979
      5976      5974      5977      5980      5977      5980      5983      5984
      5977      5980      5983      5985      5977      5980      5983      5986
      5978      5977      5980      5981      5978      5977      5980      5982
      5978      5977      5980      5983      5979      5977      5980      5981
      5979      5977      5980      5982      5979      5977      5980      5983
      5981      5980      5983      5984      5981      5980      5983      5985
      5981      5980      5983      5986      5982      5980      5983      5984
      5982      5980      5983      5985      5982      5980      5983      5986
      5987      5991      5994      5995      5987      5991      5994      5996
      5987      5991      5994      6001      5988      5987      5991      5992
      5988      5987      5991      5993      5988      5987      5991      5994
      5989      5987      5991      5992      5989      5987      5991      5993
      5989      5987      5991      5994      5990      5987      5991      5992
      5990      5987      5991      5993      5990      5987      5991      5994
      5991      5994      6001      5997      5992      5991      5994      5995
      5992      5991      5994      5996      5992      5991      5994      6001
      5993      5991      5994      5995      5993      5991      5994      5996
      5993      5991      5994      6001      5994      6001      5997      5998
      5994      6001      5997      5999      5994      6001      5997      6000
      5995      5994      6001      5997      5996      5994      6001      5997
      5997      6000      6002      6003      5997      6000      6002      6004
      5997      6000      6002      6005      5998      5997      6000      6002
      5999      5997      6000      6002      6000      6002      6005      6006
      6000      6002      6005      6007      6000      6002      6005      6013
      6001      5997      6000      6002      6002      6005      6007      6008
      6002      6005      6013      6014      6002      6005      6013      6015
      6002      6005      6013      6016      6003      6002      6005      6006
      6003      6002      6005      6007      6003      6002      6005      6013
      6004      6002      6005      6006      6004      6002      6005      6007
      6004      6002      6005      6013      6005      6007      6008      6009
      6005      6007      6008      6010      6005      6013      6016      6017
      6006      6005      6007      6008      6006      6005      6013      6014
      6006      6005      6013      6015      6006      6005      6013      6016
      6007      6005      6013      6014      6007      6005      6013      6015
      6007      6005      6013      6016      6007      6008      6010      6011
      6007      6008      6010      6012      6007      6008      6010      6022
      6008      6007      6005      6013      6008      6010      6022      6023
      6008      6010      6022      6024      6008      6010      6022      6025
      6009      6008      6010      6011      6009      6008      6010      6012
      6009      6008      6010      6022      6010      6022      6025      6026
      6010      6022      6025      6027      6010      6022      6025      6028
      6011      6010      6022      6023      6011      6010      6022      6024
      6011      6010      6022      6025      6012      6010      6022      6023
      6012      6010      6022      6024      6012      6010      6022      6025
      6013      6016      6017      6018      6013      6016      6017      6019
      6014      6013      6016      6017      6015      6013      6016      6017
      6016      6017      6019      6020      6016      6017      6019      6021
      6016      6017      6019      6066      6017      6019      6066      6067
      6017      6019      6066      6068      6017      6019      6066      6069
      6018      6017      6019      6020      6018      6017      6019      6021
      6018      6017      6019      6066      6019      6066      6069      6070
      6019      6066      6069      6071      6019      6066      6069      6072
      6020      6019      6066      6067      6020      6019      6066      6068
      6020      6019      6066      6069      6021      6019      6066      6067
      6021      6019      6066      6068      6021      6019      6066      6069
      6022      6025      6028      6029      6022      6025      6028      6030
      6022      6025      6028      6031      6023      6022      6025      6026
      6023      6022      6025      6027      6023      6022      6025      6028
      6024      6022      6025      6026      6024      6022      6025      6027
      6024      6022      6025      6028      6025      6028      6031      6032
      6025      6028      6031      6033      6025      6028      6031      6034
      6026      6025      6028      6029      6026      6025      6028      6030
      6026      6025      6028      6031      6027      6025      6028      6029
      6027      6025      6028      6030      6027      6025      6028      6031
      6028      6031      6034      6035      6028      6031      6034      6036
      6028      6031      6034      6037      6029      6028      6031      6032
      6029      6028      6031      6033      6029      6028      6031      6034
      6030      6028      6031      6032      6030      6028      6031      6033
      6030      6028      6031      6034      6031      6034      6037      6038
      6031      6034      6037      6039      6031      6034      6037      6040
      6032      6031      6034      6035      6032      6031      6034      6036
      6032      6031      6034      6037      6033      6031      6034      6035
      6033      6031      6034      6036      6033      6031      6034      6037
      6034      6037      6040      6041      6034      6037      6040      6042
      6034      6037      6040      6045      6035      6034      6037      6038
      6035      6034      6037      6039      6035      6034      6037      6040
      6036      6034      6037      6038      6036      6034      6037      6039
      6036      6034      6037      6040      6037      6040      6042      6043
      6037      6040      6042      6044      6037      6040      6042      6045
      6037      6040      6045      6042      6037      6040      6045      6046
      6037      6040      6045      6047      6038      6037      6040      6041
      6038      6037      6040      6042      6038      6037      6040      6045
      6039      6037      6040      6041      6039      6037      6040      6042
      6039      6037      6040      6045      6040      6042      6045      6046
      6040      6042      6045      6047      6040      6045      6042      6043
      6040      6045      6042      6044      6040      6045      6047      6048
      6040      6045      6047      6049      6040      6045      6047      6050
      6041      6040      6042      6043      6041      6040      6042      6044
      6041      6040      6042      6045      6041      6040      6045      6042
      6041      6040      6045      6046      6041      6040      6045      6047
      6042      6040      6045      6046      6042      6040      6045      6047
      6042      6045      6047      6048      6042      6045      6047      6049
      6042      6045      6047      6050      6043      6042      6040      6045
      6043      6042      6045      6046      6043      6042      6045      6047
      6044      6042      6040      6045      6044      6042      6045      6046
      6044      6042      6045      6047      6045      6047      6050      6051
      6045      6047      6050      6052      6045      6047      6050      6053
      6046      6045      6047      6048      6046      6045      6047      6049
      6046      6045      6047      6050      6047      6050      6053      6054
      6047      6050      6053      6055      6047      6050      6053      6056
      6048      6047      6050      6051      6048      6047      6050      6052
      6048      6047      6050      6053      6049      6047      6050      6051
      6049      6047      6050      6052      6049      6047      6050      6053
      6050      6053      6056      6057      6050      6053      6056      6058
      6050      6053      6056      6059      6051      6050      6053      6054
      6051      6050      6053      6055      6051      6050      6053      6056
      6052      6050      6053      6054      6052      6050      6053      6055
      6052      6050      6053      6056      6053      6056      6059      6060
      6053      6056      6059      6061      6053      6056      6059      6062
      6054      6053      6056      6057      6054      6053      6056      6058
      6054      6053      6056      6059      6055      6053      6056      6057
      6055      6053      6056      6058      6055      6053      6056      6059
      6056      6059      6062      6063      6056      6059      6062      6064
      6056      6059      6062      6065      6057      6056      6059      6060
      6057      6056      6059      6061      6057      6056      6059      6062
      6058      6056      6059      6060      6058      6056      6059      6061
      6058      6056      6059      6062      6060      6059      6062      6063
      6060      6059      6062      6064      6060      6059      6062      6065
      6061      6059      6062      6063      6061      6059      6062      6064
      6061      6059      6062      6065      6066      6069      6072      6073
      6066      6069      6072      6074      6066      6069      6072      6075
      6067      6066      6069      6070      6067      6066      6069      6071
      6067      6066      6069      6072      6068      6066      6069      6070
      6068      6066      6069      6071      6068      6066      6069      6072
      6069      6072      6075      6076      6069      6072      6075      6077
      6069      6072      6075      6078      6070      6069      6072      6073
      6070      6069      6072      6074      6070      6069      6072      6075
      6071      6069      6072      6073      6071      6069      6072      6074
      6071      6069      6072      6075      6072      6075      6078      6079
      6072      6075      6078      6080      6072      6075      6078      6081
      6073      6072      6075      6076      6073      6072      6075      6077
      6073      6072      6075      6078      6074      6072      6075      6076
      6074      6072      6075      6077      6074      6072      6075      6078
      6075      6078      6081      6082      6075      6078      6081      6083
      6075      6078      6081      6084      6076      6075      6078      6079
      6076      6075      6078      6080      6076      6075      6078      6081
      6077      6075      6078      6079      6077      6075      6078      6080
      6077      6075      6078      6081      6078      6081      6084      6085
      6078      6081      6084      6086      6078      6081      6084      6087
      6079      6078      6081      6082      6079      6078      6081      6083
      6079      6078      6081      6084      6080      6078      6081      6082
      6080      6078      6081      6083      6080      6078      6081      6084
      6081      6084      6087      6088      6081      6084      6087      6089
      6081      6084      6087      6090      6082      6081      6084      6085
      6082      6081      6084      6086      6082      6081      6084      6087
      6083      6081      6084      6085      6083      6081      6084      6086
      6083      6081      6084      6087      6084      6087      6090      6091
      6084      6087      6090      6092      6084      6087      6090      6093
      6085      6084      6087      6088      6085      6084      6087      6089
      6085      6084      6087      6090      6086      6084      6087      6088
      6086      6084      6087      6089      6086      6084      6087      6090
      6087      6090      6093      6094      6087      6090      6093      6095
      6087      6090      6093      6096      6088      6087      6090      6091
      6088      6087      6090      6092      6088      6087      6090      6093
      6089      6087      6090      6091      6089      6087      6090      6092
      6089      6087      6090      6093      6090      6093      6096      6097
      6090      6093      6096      6098      6090      6093      6096      6099
      6091      6090      6093      6094      6091      6090      6093      6095
      6091      6090      6093      6096      6092      6090      6093      6094
      6092      6090      6093      6095      6092      6090      6093      6096
      6093      6096      6099      6100      6093      6096      6099      6101
      6093      6096      6099      6102      6094      6093      6096      6097
      6094      6093      6096      6098      6094      6093      6096      6099
      6095      6093      6096      6097      6095      6093      6096      6098
      6095      6093      6096      6099      6096      6099      6102      6103
      6096      6099      6102      6104      6096      6099      6102      6105
      6097      6096      6099      6100      6097      6096      6099      6101
      6097      6096      6099      6102      6098      6096      6099      6100
      6098      6096      6099      6101      6098      6096      6099      6102
      6099      6102      6105      6106      6099      6102      6105      6107
      6099      6102      6105      6108      6100      6099      6102      6103
      6100      6099      6102      6104      6100      6099      6102      6105
      6101      6099      6102      6103      6101      6099      6102      6104
      6101      6099      6102      6105      6103      6102      6105      6106
      6103      6102      6105      6107      6103      6102      6105      6108
      6104      6102      6105      6106      6104      6102      6105      6107
      6104      6102      6105      6108      6109      6113      6116      6117
      6109      6113      6116      6118      6109      6113      6116      6123
      6110      6109      6113      6114      6110      6109      6113      6115
      6110      6109      6113      6116      6111      6109      6113      6114
      6111      6109      6113      6115      6111      6109      6113      6116
      6112      6109      6113      6114      6112      6109      6113      6115
      6112      6109      6113      6116      6113      6116      6123      6119
      6114      6113      6116      6117      6114      6113      6116      6118
      6114      6113      6116      6123      6115      6113      6116      6117
      6115      6113      6116      6118      6115      6113      6116      6123
      6116      6123      6119      6120      6116      6123      6119      6121
      6116      6123      6119      6122      6117      6116      6123      6119
      6118      6116      6123      6119      6119      6122      6124      6125
      6119      6122      6124      6126      6119      6122      6124      6127
      6120      6119      6122      6124      6121      6119      6122      6124
      6122      6124      6127      6128      6122      6124      6127      6129
      6122      6124      6127      6135      6123      6119      6122      6124
      6124      6127      6129      6130      6124      6127      6135      6136
      6124      6127      6135      6137      6124      6127      6135      6138
      6125      6124      6127      6128      6125      6124      6127      6129
      6125      6124      6127      6135      6126      6124      6127      6128
      6126      6124      6127      6129      6126      6124      6127      6135
      6127      6129      6130      6131      6127      6129      6130      6132
      6127      6135      6138      6139      6128      6127      6129      6130
      6128      6127      6135      6136      6128      6127      6135      6137
      6128      6127      6135      6138      6129      6127      6135      6136
      6129      6127      6135      6137      6129      6127      6135      6138
      6129      6130      6132      6133      6129      6130      6132      6134
      6129      6130      6132      6144      6130      6129      6127      6135
      6130      6132      6144      6145      6130      6132      6144      6146
      6130      6132      6144      6147      6131      6130      6132      6133
      6131      6130      6132      6134      6131      6130      6132      6144
      6132      6144      6147      6148      6132      6144      6147      6149
      6132      6144      6147      6150      6133      6132      6144      6145
      6133      6132      6144      6146      6133      6132      6144      6147
      6134      6132      6144      6145      6134      6132      6144      6146
      6134      6132      6144      6147      6135      6138      6139      6140
      6135      6138      6139      6141      6136      6135      6138      6139
      6137      6135      6138      6139      6138      6139      6141      6142
      6138      6139      6141      6143      6138      6139      6141      6191
      6139      6141      6191      6192      6139      6141      6191      6193
      6139      6141      6191      6194      6140      6139      6141      6142
      6140      6139      6141      6143      6140      6139      6141      6191
      6141      6191      6194      6195      6141      6191      6194      6196
      6141      6191      6194      6197      6142      6141      6191      6192
      6142      6141      6191      6193      6142      6141      6191      6194
      6143      6141      6191      6192      6143      6141      6191      6193
      6143      6141      6191      6194      6144      6147      6150      6151
      6144      6147      6150      6152      6144      6147      6150      6153
      6145      6144      6147      6148      6145      6144      6147      6149
      6145      6144      6147      6150      6146      6144      6147      6148
      6146      6144      6147      6149      6146      6144      6147      6150
      6147      6150      6153      6154      6147      6150      6153      6155
      6147      6150      6153      6156      6148      6147      6150      6151
      6148      6147      6150      6152      6148      6147      6150      6153
      6149      6147      6150      6151      6149      6147      6150      6152
      6149      6147      6150      6153      6150      6153      6156      6157
      6150      6153      6156      6158      6150      6153      6156      6159
      6151      6150      6153      6154      6151      6150      6153      6155
      6151      6150      6153      6156      6152      6150      6153      6154
      6152      6150      6153      6155      6152      6150      6153      6156
      6153      6156      6159      6160      6153      6156      6159      6161
      6153      6156      6159      6162      6154      6153      6156      6157
      6154      6153      6156      6158      6154      6153      6156      6159
      6155      6153      6156      6157      6155      6153      6156      6158
      6155      6153      6156      6159      6156      6159      6162      6163
      6156      6159      6162      6164      6157      6156      6159      6160
      6157      6156      6159      6161      6157      6156      6159      6162
      6158      6156      6159      6160      6158      6156      6159      6161
      6158      6156      6159      6162      6159      6162      6164      6165
      6159      6162      6164      6166      6160      6159      6162      6163
      6160      6159      6162      6164      6161      6159      6162      6163
      6161      6159      6162      6164      6162      6164      6166      6167
      6162      6164      6166      6168      6162      6164      6166      6169
      6163      6162      6164      6165      6163      6162      6164      6166
      6164      6166      6169      6170      6164      6166      6169      6171
      6164      6166      6169      6172      6165      6164      6166      6167
      6165      6164      6166      6168      6165      6164      6166      6169
      6166      6169      6172      6173      6166      6169      6172      6174
      6166      6169      6172      6175      6167      6166      6169      6170
      6167      6166      6169      6171      6167      6166      6169      6172
      6168      6166      6169      6170      6168      6166      6169      6171
      6168      6166      6169      6172      6169      6172      6175      6176
      6169      6172      6175      6177      6169      6172      6175      6178
      6170      6169      6172      6173      6170      6169      6172      6174
      6170      6169      6172      6175      6171      6169      6172      6173
      6171      6169      6172      6174      6171      6169      6172      6175
      6172      6175      6178      6179      6172      6175      6178      6180
      6172      6175      6178      6181      6173      6172      6175      6176
      6173      6172      6175      6177      6173      6172      6175      6178
      6174      6172      6175      6176      6174      6172      6175      6177
      6174      6172      6175      6178      6175      6178      6181      6182
      6175      6178      6181      6183      6175      6178      6181      6184
      6176      6175      6178      6179      6176      6175      6178      6180
      6176      6175      6178      6181      6177      6175      6178      6179
      6177      6175      6178      6180      6177      6175      6178      6181
      6178      6181      6184      6185      6178      6181      6184      6186
      6178      6181      6184      6187      6179      6178      6181      6182
      6179      6178      6181      6183      6179      6178      6181      6184
      6180      6178      6181      6182      6180      6178      6181      6183
      6180      6178      6181      6184      6181      6184      6187      6188
      6181      6184      6187      6189      6181      6184      6187      6190
      6182      6181      6184      6185      6182      6181      6184      6186
      6182      6181      6184      6187      6183      6181      6184      6185
      6183      6181      6184      6186      6183      6181      6184      6187
      6185      6184      6187      6188      6185      6184      6187      6189
      6185      6184      6187      6190      6186      6184      6187      6188
      6186      6184      6187      6189      6186      6184      6187      6190
      6191      6194      6197      6198      6191      6194      6197      6199
      6191      6194      6197      6200      6192      6191      6194      6195
      6192      6191      6194      6196      6192      6191      6194      6197
      6193      6191      6194      6195      6193      6191      6194      6196
      6193      6191      6194      6197      6194      6197      6200      6201
      6194      6197      6200      6202      6194      6197      6200      6203
      6195      6194      6197      6198      6195      6194      6197      6199
      6195      6194      6197      6200      6196      6194      6197      6198
      6196      6194      6197      6199      6196      6194      6197      6200
      6197      6200      6203      6204      6197      6200      6203      6205
      6197      6200      6203      6206      6198      6197      6200      6201
      6198      6197      6200      6202      6198      6197      6200      6203
      6199      6197      6200      6201      6199      6197      6200      6202
      6199      6197      6200      6203      6200      6203      6206      6207
      6200      6203      6206      6208      6200      6203      6206      6209
      6201      6200      6203      6204      6201      6200      6203      6205
      6201      6200      6203      6206      6202      6200      6203      6204
      6202      6200      6203      6205      6202      6200      6203      6206
      6203      6206      6209      6210      6203      6206      6209      6211
      6203      6206      6209      6212      6204      6203      6206      6207
      6204      6203      6206      6208      6204      6203      6206      6209
      6205      6203      6206      6207      6205      6203      6206      6208
      6205      6203      6206      6209      6206      6209      6212      6213
      6206      6209      6212      6214      6206      6209      6212      6215
      6207      6206      6209      6210      6207      6206      6209      6211
      6207      6206      6209      6212      6208      6206      6209      6210
      6208      6206      6209      6211      6208      6206      6209      6212
      6209      6212      6215      6216      6209      6212      6215      6217
      6209      6212      6215      6218      6210      6209      6212      6213
      6210      6209      6212      6214      6210      6209      6212      6215
      6211      6209      6212      6213      6211      6209      6212      6214
      6211      6209      6212      6215      6212      6215      6218      6219
      6212      6215      6218      6220      6212      6215      6218      6221
      6213      6212      6215      6216      6213      6212      6215      6217
      6213      6212      6215      6218      6214      6212      6215      6216
      6214      6212      6215      6217      6214      6212      6215      6218
      6215      6218      6221      6222      6215      6218      6221      6223
      6215      6218      6221      6224      6216      6215      6218      6219
      6216      6215      6218      6220      6216      6215      6218      6221
      6217      6215      6218      6219      6217      6215      6218      6220
      6217      6215      6218      6221      6218      6221      6224      6225
      6218      6221      6224      6226      6218      6221      6224      6227
      6219      6218      6221      6222      6219      6218      6221      6223
      6219      6218      6221      6224      6220      6218      6221      6222
      6220      6218      6221      6223      6220      6218      6221      6224
      6221      6224      6227      6228      6221      6224      6227      6229
      6221      6224      6227      6230      6222      6221      6224      6225
      6222      6221      6224      6226      6222      6221      6224      6227
      6223      6221      6224      6225      6223      6221      6224      6226
      6223      6221      6224      6227      6224      6227      6230      6231
      6224      6227      6230      6232      6224      6227      6230      6233
      6225      6224      6227      6228      6225      6224      6227      6229
      6225      6224      6227      6230      6226      6224      6227      6228
      6226      6224      6227      6229      6226      6224      6227      6230
      6228      6227      6230      6231      6228      6227      6230      6232
      6228      6227      6230      6233      6229      6227      6230      6231
      6229      6227      6230      6232      6229      6227      6230      6233
      6234      6238      6241      6242      6234      6238      6241      6243
      6234      6238      6241      6248      6235      6234      6238      6239
      6235      6234      6238      6240      6235      6234      6238      6241
      6236      6234      6238      6239      6236      6234      6238      6240
      6236      6234      6238      6241      6237      6234      6238      6239
      6237      6234      6238      6240      6237      6234      6238      6241
      6238      6241      6248      6244      6239      6238      6241      6242
      6239      6238      6241      6243      6239      6238      6241      6248
      6240      6238      6241      6242      6240      6238      6241      6243
      6240      6238      6241      6248      6241      6248      6244      6245
      6241      6248      6244      6246      6241      6248      6244      6247
      6242      6241      6248      6244      6243      6241      6248      6244
      6244      6247      6249      6250      6244      6247      6249      6251
      6244      6247      6249      6252      6245      6244      6247      6249
      6246      6244      6247      6249      6247      6249      6252      6253
      6247      6249      6252      6254      6247      6249      6252      6260
      6248      6244      6247      6249      6249      6252      6254      6255
      6249      6252      6260      6261      6249      6252      6260      6262
      6249      6252      6260      6263      6250      6249      6252      6253
      6250      6249      6252      6254      6250      6249      6252      6260
      6251      6249      6252      6253      6251      6249      6252      6254
      6251      6249      6252      6260      6252      6254      6255      6256
      6252      6254      6255      6257      6252      6260      6263      6264
      6253      6252      6254      6255      6253      6252      6260      6261
      6253      6252      6260      6262      6253      6252      6260      6263
      6254      6252      6260      6261      6254      6252      6260      6262
      6254      6252      6260      6263      6254      6255      6257      6258
      6254      6255      6257      6259      6254      6255      6257      6269
      6255      6254      6252      6260      6255      6257      6269      6270
      6255      6257      6269      6271      6255      6257      6269      6272
      6256      6255      6257      6258      6256      6255      6257      6259
      6256      6255      6257      6269      6257      6269      6272      6273
      6257      6269      6272      6274      6257      6269      6272      6275
      6258      6257      6269      6270      6258      6257      6269      6271
      6258      6257      6269      6272      6259      6257      6269      6270
      6259      6257      6269      6271      6259      6257      6269      6272
      6260      6263      6264      6265      6260      6263      6264      6266
      6261      6260      6263      6264      6262      6260      6263      6264
      6263      6264      6266      6267      6263      6264      6266      6268
      6263      6264      6266      6313      6264      6266      6313      6314
      6264      6266      6313      6315      6264      6266      6313      6316
      6265      6264      6266      6267      6265      6264      6266      6268
      6265      6264      6266      6313      6266      6313      6316      6317
      6266      6313      6316      6318      6266      6313      6316      6319
      6267      6266      6313      6314      6267      6266      6313      6315
      6267      6266      6313      6316      6268      6266      6313      6314
      6268      6266      6313      6315      6268      6266      6313      6316
      6269      6272      6275      6276      6269      6272      6275      6277
      6269      6272      6275      6278      6270      6269      6272      6273
      6270      6269      6272      6274      6270      6269      6272      6275
      6271      6269      6272      6273      6271      6269      6272      6274
      6271      6269      6272      6275      6272      6275      6278      6279
      6272      6275      6278      6280      6272      6275      6278      6281
      6273      6272      6275      6276      6273      6272      6275      6277
      6273      6272      6275      6278      6274      6272      6275      6276
      6274      6272      6275      6277      6274      6272      6275      6278
      6275      6278      6281      6282      6275      6278      6281      6283
      6275      6278      6281      6284      6276      6275      6278      6279
      6276      6275      6278      6280      6276      6275      6278      6281
      6277      6275      6278      6279      6277      6275      6278      6280
      6277      6275      6278      6281      6278      6281      6284      6285
      6278      6281      6284      6286      6278      6281      6284      6287
      6279      6278      6281      6282      6279      6278      6281      6283
      6279      6278      6281      6284      6280      6278      6281      6282
      6280      6278      6281      6283      6280      6278      6281      6284
      6281      6284      6287      6288      6281      6284      6287      6289
      6281      6284      6287      6292      6282      6281      6284      6285
      6282      6281      6284      6286      6282      6281      6284      6287
      6283      6281      6284      6285      6283      6281      6284      6286
      6283      6281      6284      6287      6284      6287      6289      6290
      6284      6287      6289      6291      6284      6287      6289      6292
      6284      6287      6292      6289      6284      6287      6292      6293
      6284      6287      6292      6294      6285      6284      6287      6288
      6285      6284      6287      6289      6285      6284      6287      6292
      6286      6284      6287      6288      6286      6284      6287      6289
      6286      6284      6287      6292      6287      6289      6292      6293
      6287      6289      6292      6294      6287      6292      6289      6290
      6287      6292      6289      6291      6287      6292      6294      6295
      6287      6292      6294      6296      6287      6292      6294      6297
      6288      6287      6289      6290      6288      6287      6289      6291
      6288      6287      6289      6292      6288      6287      6292      6289
      6288      6287      6292      6293      6288      6287      6292      6294
      6289      6287      6292      6293      6289      6287      6292      6294
      6289      6292      6294      6295      6289      6292      6294      6296
      6289      6292      6294      6297      6290      6289      6287      6292
      6290      6289      6292      6293      6290      6289      6292      6294
      6291      6289      6287      6292      6291      6289      6292      6293
      6291      6289      6292      6294      6292      6294      6297      6298
      6292      6294      6297      6299      6292      6294      6297      6300
      6293      6292      6294      6295      6293      6292      6294      6296
      6293      6292      6294      6297      6294      6297      6300      6301
      6294      6297      6300      6302      6294      6297      6300      6303
      6295      6294      6297      6298      6295      6294      6297      6299
      6295      6294      6297      6300      6296      6294      6297      6298
      6296      6294      6297      6299      6296      6294      6297      6300
      6297      6300      6303      6304      6297      6300      6303      6305
      6297      6300      6303      6306      6298      6297      6300      6301
      6298      6297      6300      6302      6298      6297      6300      6303
      6299      6297      6300      6301      6299      6297      6300      6302
      6299      6297      6300      6303      6300      6303      6306      6307
      6300      6303      6306      6308      6300      6303      6306      6309
      6301      6300      6303      6304      6301      6300      6303      6305
      6301      6300      6303      6306      6302      6300      6303      6304
      6302      6300      6303      6305      6302      6300      6303      6306
      6303      6306      6309      6310      6303      6306      6309      6311
      6303      6306      6309      6312      6304      6303      6306      6307
      6304      6303      6306      6308      6304      6303      6306      6309
      6305      6303      6306      6307      6305      6303      6306      6308
      6305      6303      6306      6309      6307      6306      6309      6310
      6307      6306      6309      6311      6307      6306      6309      6312
      6308      6306      6309      6310      6308      6306      6309      6311
      6308      6306      6309      6312      6313      6316      6319      6320
      6313      6316      6319      6321      6313      6316      6319      6322
      6314      6313      6316      6317      6314      6313      6316      6318
      6314      6313      6316      6319      6315      6313      6316      6317
      6315      6313      6316      6318      6315      6313      6316      6319
      6316      6319      6322      6323      6316      6319      6322      6324
      6316      6319      6322      6325      6317      6316      6319      6320
      6317      6316      6319      6321      6317      6316      6319      6322
      6318      6316      6319      6320      6318      6316      6319      6321
      6318      6316      6319      6322      6319      6322      6325      6326
      6319      6322      6325      6327      6319      6322      6325      6328
      6320      6319      6322      6323      6320      6319      6322      6324
      6320      6319      6322      6325      6321      6319      6322      6323
      6321      6319      6322      6324      6321      6319      6322      6325
      6322      6325      6328      6329      6322      6325      6328      6330
      6322      6325      6328      6331      6323      6322      6325      6326
      6323      6322      6325      6327      6323      6322      6325      6328
      6324      6322      6325      6326      6324      6322      6325      6327
      6324      6322      6325      6328      6325      6328      6331      6332
      6325      6328      6331      6333      6325      6328      6331      6334
      6326      6325      6328      6329      6326      6325      6328      6330
      6326      6325      6328      6331      6327      6325      6328      6329
      6327      6325      6328      6330      6327      6325      6328      6331
      6328      6331      6334      6335      6328      6331      6334      6336
      6328      6331      6334      6337      6329      6328      6331      6332
      6329      6328      6331      6333      6329      6328      6331      6334
      6330      6328      6331      6332      6330      6328      6331      6333
      6330      6328      6331      6334      6331      6334      6337      6338
      6331      6334      6337      6339      6331      6334      6337      6340
      6332      6331      6334      6335      6332      6331      6334      6336
      6332      6331      6334      6337      6333      6331      6334      6335
      6333      6331      6334      6336      6333      6331      6334      6337
      6334      6337      6340      6341      6334      6337      6340      6342
      6334      6337      6340      6343      6335      6334      6337      6338
      6335      6334      6337      6339      6335      6334      6337      6340
      6336      6334      6337      6338      6336      6334      6337      6339
      6336      6334      6337      6340      6337      6340      6343      6344
      6337      6340      6343      6345      6337      6340      6343      6346
      6338      6337      6340      6341      6338      6337      6340      6342
      6338      6337      6340      6343      6339      6337      6340      6341
      6339      6337      6340      6342      6339      6337      6340      6343
      6340      6343      6346      6347      6340      6343      6346      6348
      6340      6343      6346      6349      6341      6340      6343      6344
      6341      6340      6343      6345      6341      6340      6343      6346
      6342      6340      6343      6344      6342      6340      6343      6345
      6342      6340      6343      6346      6343      6346      6349      6350
      6343      6346      6349      6351      6343      6346      6349      6352
      6344      6343      6346      6347      6344      6343      6346      6348
      6344      6343      6346      6349      6345      6343      6346      6347
      6345      6343      6346      6348      6345      6343      6346      6349
      6347      6346      6349      6350      6347      6346      6349      6351
      6347      6346      6349      6352      6348      6346      6349      6350
      6348      6346      6349      6351      6348      6346      6349      6352
      6353      6357      6360      6361      6353      6357      6360      6362
      6353      6357      6360      6367      6354      6353      6357      6358
      6354      6353      6357      6359      6354      6353      6357      6360
      6355      6353      6357      6358      6355      6353      6357      6359
      6355      6353      6357      6360      6356      6353      6357      6358
      6356      6353      6357      6359      6356      6353      6357      6360
      6357      6360      6367      6363      6358      6357      6360      6361
      6358      6357      6360      6362      6358      6357      6360      6367
      6359      6357      6360      6361      6359      6357      6360      6362
      6359      6357      6360      6367      6360      6367      6363      6364
      6360      6367      6363      6365      6360      6367      6363      6366
      6361      6360      6367      6363      6362      6360      6367      6363
      6363      6366      6368      6369      6363      6366      6368      6370
      6363      6366      6368      6371      6364      6363      6366      6368
      6365      6363      6366      6368      6366      6368      6371      6372
      6366      6368      6371      6373      6366      6368      6371      6379
      6367      6363      6366      6368      6368      6371      6373      6374
      6368      6371      6379      6380      6368      6371      6379      6381
      6368      6371      6379      6382      6369      6368      6371      6372
      6369      6368      6371      6373      6369      6368      6371      6379
      6370      6368      6371      6372      6370      6368      6371      6373
      6370      6368      6371      6379      6371      6373      6374      6375
      6371      6373      6374      6376      6371      6379      6382      6383
      6372      6371      6373      6374      6372      6371      6379      6380
      6372      6371      6379      6381      6372      6371      6379      6382
      6373      6371      6379      6380      6373      6371      6379      6381
      6373      6371      6379      6382      6373      6374      6376      6377
      6373      6374      6376      6378      6373      6374      6376      6388
      6374      6373      6371      6379      6374      6376      6388      6389
      6374      6376      6388      6390      6374      6376      6388      6391
      6375      6374      6376      6377      6375      6374      6376      6378
      6375      6374      6376      6388      6376      6388      6391      6392
      6376      6388      6391      6393      6376      6388      6391      6394
      6377      6376      6388      6389      6377      6376      6388      6390
      6377      6376      6388      6391      6378      6376      6388      6389
      6378      6376      6388      6390      6378      6376      6388      6391
      6379      6382      6383      6384      6379      6382      6383      6385
      6380      6379      6382      6383      6381      6379      6382      6383
      6382      6383      6385      6386      6382      6383      6385      6387
      6382      6383      6385      6432      6383      6385      6432      6433
      6383      6385      6432      6434      6383      6385      6432      6435
      6384      6383      6385      6386      6384      6383      6385      6387
      6384      6383      6385      6432      6385      6432      6435      6436
      6385      6432      6435      6437      6385      6432      6435      6438
      6386      6385      6432      6433      6386      6385      6432      6434
      6386      6385      6432      6435      6387      6385      6432      6433
      6387      6385      6432      6434      6387      6385      6432      6435
      6388      6391      6394      6395      6388      6391      6394      6396
      6388      6391      6394      6397      6389      6388      6391      6392
      6389      6388      6391      6393      6389      6388      6391      6394
      6390      6388      6391      6392      6390      6388      6391      6393
      6390      6388      6391      6394      6391      6394      6397      6398
      6391      6394      6397      6399      6391      6394      6397      6400
      6392      6391      6394      6395      6392      6391      6394      6396
      6392      6391      6394      6397      6393      6391      6394      6395
      6393      6391      6394      6396      6393      6391      6394      6397
      6394      6397      6400      6401      6394      6397      6400      6402
      6394      6397      6400      6403      6395      6394      6397      6398
      6395      6394      6397      6399      6395      6394      6397      6400
      6396      6394      6397      6398      6396      6394      6397      6399
      6396      6394      6397      6400      6397      6400      6403      6404
      6397      6400      6403      6405      6397      6400      6403      6406
      6398      6397      6400      6401      6398      6397      6400      6402
      6398      6397      6400      6403      6399      6397      6400      6401
      6399      6397      6400      6402      6399      6397      6400      6403
      6400      6403      6406      6407      6400      6403      6406      6408
      6400      6403      6406      6411      6401      6400      6403      6404
      6401      6400      6403      6405      6401      6400      6403      6406
      6402      6400      6403      6404      6402      6400      6403      6405
      6402      6400      6403      6406      6403      6406      6408      6409
      6403      6406      6408      6410      6403      6406      6408      6411
      6403      6406      6411      6408      6403      6406      6411      6412
      6403      6406      6411      6413      6404      6403      6406      6407
      6404      6403      6406      6408      6404      6403      6406      6411
      6405      6403      6406      6407      6405      6403      6406      6408
      6405      6403      6406      6411      6406      6408      6411      6412
      6406      6408      6411      6413      6406      6411      6408      6409
      6406      6411      6408      6410      6406      6411      6413      6414
      6406      6411      6413      6415      6406      6411      6413      6416
      6407      6406      6408      6409      6407      6406      6408      6410
      6407      6406      6408      6411      6407      6406      6411      6408
      6407      6406      6411      6412      6407      6406      6411      6413
      6408      6406      6411      6412      6408      6406      6411      6413
      6408      6411      6413      6414      6408      6411      6413      6415
      6408      6411      6413      6416      6409      6408      6406      6411
      6409      6408      6411      6412      6409      6408      6411      6413
      6410      6408      6406      6411      6410      6408      6411      6412
      6410      6408      6411      6413      6411      6413      6416      6417
      6411      6413      6416      6418      6411      6413      6416      6419
      6412      6411      6413      6414      6412      6411      6413      6415
      6412      6411      6413      6416      6413      6416      6419      6420
      6413      6416      6419      6421      6413      6416      6419      6422
      6414      6413      6416      6417      6414      6413      6416      6418
      6414      6413      6416      6419      6415      6413      6416      6417
      6415      6413      6416      6418      6415      6413      6416      6419
      6416      6419      6422      6423      6416      6419      6422      6424
      6416      6419      6422      6425      6417      6416      6419      6420
      6417      6416      6419      6421      6417      6416      6419      6422
      6418      6416      6419      6420      6418      6416      6419      6421
      6418      6416      6419      6422      6419      6422      6425      6426
      6419      6422      6425      6427      6419      6422      6425      6428
      6420      6419      6422      6423      6420      6419      6422      6424
      6420      6419      6422      6425      6421      6419      6422      6423
      6421      6419      6422      6424      6421      6419      6422      6425
      6422      6425      6428      6429      6422      6425      6428      6430
      6422      6425      6428      6431      6423      6422      6425      6426
      6423      6422      6425      6427      6423      6422      6425      6428
      6424      6422      6425      6426      6424      6422      6425      6427
      6424      6422      6425      6428      6426      6425      6428      6429
      6426      6425      6428      6430      6426      6425      6428      6431
      6427      6425      6428      6429      6427      6425      6428      6430
      6427      6425      6428      6431      6432      6435      6438      6439
      6432      6435      6438      6440      6432      6435      6438      6441
      6433      6432      6435      6436      6433      6432      6435      6437
      6433      6432      6435      6438      6434      6432      6435      6436
      6434      6432      6435      6437      6434      6432      6435      6438
      6435      6438      6441      6442      6435      6438      6441      6443
      6435      6438      6441      6444      6436      6435      6438      6439
      6436      6435      6438      6440      6436      6435      6438      6441
      6437      6435      6438      6439      6437      6435      6438      6440
      6437      6435      6438      6441      6438      6441      6444      6445
      6438      6441      6444      6446      6438      6441      6444      6447
      6439      6438      6441      6442      6439      6438      6441      6443
      6439      6438      6441      6444      6440      6438      6441      6442
      6440      6438      6441      6443      6440      6438      6441      6444
      6441      6444      6447      6448      6441      6444      6447      6449
      6441      6444      6447      6450      6442      6441      6444      6445
      6442      6441      6444      6446      6442      6441      6444      6447
      6443      6441      6444      6445      6443      6441      6444      6446
      6443      6441      6444      6447      6444      6447      6450      6451
      6444      6447      6450      6452      6444      6447      6450      6453
      6445      6444      6447      6448      6445      6444      6447      6449
      6445      6444      6447      6450      6446      6444      6447      6448
      6446      6444      6447      6449      6446      6444      6447      6450
      6447      6450      6453      6454      6447      6450      6453      6455
      6447      6450      6453      6456      6448      6447      6450      6451
      6448      6447      6450      6452      6448      6447      6450      6453
      6449      6447      6450      6451      6449      6447      6450      6452
      6449      6447      6450      6453      6450      6453      6456      6457
      6450      6453      6456      6458      6450      6453      6456      6459
      6451      6450      6453      6454      6451      6450      6453      6455
      6451      6450      6453      6456      6452      6450      6453      6454
      6452      6450      6453      6455      6452      6450      6453      6456
      6453      6456      6459      6460      6453      6456      6459      6461
      6453      6456      6459      6462      6454      6453      6456      6457
      6454      6453      6456      6458      6454      6453      6456      6459
      6455      6453      6456      6457      6455      6453      6456      6458
      6455      6453      6456      6459      6456      6459      6462      6463
      6456      6459      6462      6464      6456      6459      6462      6465
      6457      6456      6459      6460      6457      6456      6459      6461
      6457      6456      6459      6462      6458      6456      6459      6460
      6458      6456      6459      6461      6458      6456      6459      6462
      6459      6462      6465      6466      6459      6462      6465      6467
      6459      6462      6465      6468      6460      6459      6462      6463
      6460      6459      6462      6464      6460      6459      6462      6465
      6461      6459      6462      6463      6461      6459      6462      6464
      6461      6459      6462      6465      6462      6465      6468      6469
      6462      6465      6468      6470      6462      6465      6468      6471
      6463      6462      6465      6466      6463      6462      6465      6467
      6463      6462      6465      6468      6464      6462      6465      6466
      6464      6462      6465      6467      6464      6462      6465      6468
      6465      6468      6471      6472      6465      6468      6471      6473
      6465      6468      6471      6474      6466      6465      6468      6469
      6466      6465      6468      6470      6466      6465      6468      6471
      6467      6465      6468      6469      6467      6465      6468      6470
      6467      6465      6468      6471      6469      6468      6471      6472
      6469      6468      6471      6473      6469      6468      6471      6474
      6470      6468      6471      6472      6470      6468      6471      6473
      6470      6468      6471      6474      6475      6479      6482      6483
      6475      6479      6482      6484      6475      6479      6482      6489
      6476      6475      6479      6480      6476      6475      6479      6481
      6476      6475      6479      6482      6477      6475      6479      6480
      6477      6475      6479      6481      6477      6475      6479      6482
      6478      6475      6479      6480      6478      6475      6479      6481
      6478      6475      6479      6482      6479      6482      6489      6485
      6480      6479      6482      6483      6480      6479      6482      6484
      6480      6479      6482      6489      6481      6479      6482      6483
      6481      6479      6482      6484      6481      6479      6482      6489
      6482      6489      6485      6486      6482      6489      6485      6487
      6482      6489      6485      6488      6483      6482      6489      6485
      6484      6482      6489      6485      6485      6488      6490      6491
      6485      6488      6490      6492      6485      6488      6490      6493
      6486      6485      6488      6490      6487      6485      6488      6490
      6488      6490      6493      6494      6488      6490      6493      6495
      6488      6490      6493      6501      6489      6485      6488      6490
      6490      6493      6495      6496      6490      6493      6501      6502
      6490      6493      6501      6503      6490      6493      6501      6504
      6491      6490      6493      6494      6491      6490      6493      6495
      6491      6490      6493      6501      6492      6490      6493      6494
      6492      6490      6493      6495      6492      6490      6493      6501
      6493      6495      6496      6497      6493      6495      6496      6498
      6493      6501      6504      6505      6494      6493      6495      6496
      6494      6493      6501      6502      6494      6493      6501      6503
      6494      6493      6501      6504      6495      6493      6501      6502
      6495      6493      6501      6503      6495      6493      6501      6504
      6495      6496      6498      6499      6495      6496      6498      6500
      6495      6496      6498      6510      6496      6495      6493      6501
      6496      6498      6510      6511      6496      6498      6510      6512
      6496      6498      6510      6513      6497      6496      6498      6499
      6497      6496      6498      6500      6497      6496      6498      6510
      6498      6510      6513      6514      6498      6510      6513      6515
      6498      6510      6513      6516      6499      6498      6510      6511
      6499      6498      6510      6512      6499      6498      6510      6513
      6500      6498      6510      6511      6500      6498      6510      6512
      6500      6498      6510      6513      6501      6504      6505      6506
      6501      6504      6505      6507      6502      6501      6504      6505
      6503      6501      6504      6505      6504      6505      6507      6508
      6504      6505      6507      6509      6504      6505      6507      6554
      6505      6507      6554      6555      6505      6507      6554      6556
      6505      6507      6554      6557      6506      6505      6507      6508
      6506      6505      6507      6509      6506      6505      6507      6554
      6507      6554      6557      6558      6507      6554      6557      6559
      6507      6554      6557      6560      6508      6507      6554      6555
      6508      6507      6554      6556      6508      6507      6554      6557
      6509      6507      6554      6555      6509      6507      6554      6556
      6509      6507      6554      6557      6510      6513      6516      6517
      6510      6513      6516      6518      6510      6513      6516      6519
      6511      6510      6513      6514      6511      6510      6513      6515
      6511      6510      6513      6516      6512      6510      6513      6514
      6512      6510      6513      6515      6512      6510      6513      6516
      6513      6516      6519      6520      6513      6516      6519      6521
      6513      6516      6519      6522      6514      6513      6516      6517
      6514      6513      6516      6518      6514      6513      6516      6519
      6515      6513      6516      6517      6515      6513      6516      6518
      6515      6513      6516      6519      6516      6519      6522      6523
      6516      6519      6522      6524      6516      6519      6522      6525
      6517      6516      6519      6520      6517      6516      6519      6521
      6517      6516      6519      6522      6518      6516      6519      6520
      6518      6516      6519      6521      6518      6516      6519      6522
      6519      6522      6525      6526      6519      6522      6525      6527
      6519      6522      6525      6528      6520      6519      6522      6523
      6520      6519      6522      6524      6520      6519      6522      6525
      6521      6519      6522      6523      6521      6519      6522      6524
      6521      6519      6522      6525      6522      6525      6528      6529
      6522      6525      6528      6530      6522      6525      6528      6533
      6523      6522      6525      6526      6523      6522      6525      6527
      6523      6522      6525      6528      6524      6522      6525      6526
      6524      6522      6525      6527      6524      6522      6525      6528
      6525      6528      6530      6531      6525      6528      6530      6532
      6525      6528      6530      6533      6525      6528      6533      6530
      6525      6528      6533      6534      6525      6528      6533      6535
      6526      6525      6528      6529      6526      6525      6528      6530
      6526      6525      6528      6533      6527      6525      6528      6529
      6527      6525      6528      6530      6527      6525      6528      6533
      6528      6530      6533      6534      6528      6530      6533      6535
      6528      6533      6530      6531      6528      6533      6530      6532
      6528      6533      6535      6536      6528      6533      6535      6537
      6528      6533      6535      6538      6529      6528      6530      6531
      6529      6528      6530      6532      6529      6528      6530      6533
      6529      6528      6533      6530      6529      6528      6533      6534
      6529      6528      6533      6535      6530      6528      6533      6534
      6530      6528      6533      6535      6530      6533      6535      6536
      6530      6533      6535      6537      6530      6533      6535      6538
      6531      6530      6528      6533      6531      6530      6533      6534
      6531      6530      6533      6535      6532      6530      6528      6533
      6532      6530      6533      6534      6532      6530      6533      6535
      6533      6535      6538      6539      6533      6535      6538      6540
      6533      6535      6538      6541      6534      6533      6535      6536
      6534      6533      6535      6537      6534      6533      6535      6538
      6535      6538      6541      6542      6535      6538      6541      6543
      6535      6538      6541      6544      6536      6535      6538      6539
      6536      6535      6538      6540      6536      6535      6538      6541
      6537      6535      6538      6539      6537      6535      6538      6540
      6537      6535      6538      6541      6538      6541      6544      6545
      6538      6541      6544      6546      6538      6541      6544      6547
      6539      6538      6541      6542      6539      6538      6541      6543
      6539      6538      6541      6544      6540      6538      6541      6542
      6540      6538      6541      6543      6540      6538      6541      6544
      6541      6544      6547      6548      6541      6544      6547      6549
      6541      6544      6547      6550      6542      6541      6544      6545
      6542      6541      6544      6546      6542      6541      6544      6547
      6543      6541      6544      6545      6543      6541      6544      6546
      6543      6541      6544      6547      6544      6547      6550      6551
      6544      6547      6550      6552      6544      6547      6550      6553
      6545      6544      6547      6548      6545      6544      6547      6549
      6545      6544      6547      6550      6546      6544      6547      6548
      6546      6544      6547      6549      6546      6544      6547      6550
      6548      6547      6550      6551      6548      6547      6550      6552
      6548      6547      6550      6553      6549      6547      6550      6551
      6549      6547      6550      6552      6549      6547      6550      6553
      6554      6557      6560      6561      6554      6557      6560      6562
      6554      6557      6560      6563      6555      6554      6557      6558
      6555      6554      6557      6559      6555      6554      6557      6560
      6556      6554      6557      6558      6556      6554      6557      6559
      6556      6554      6557      6560      6557      6560      6563      6564
      6557      6560      6563      6565      6557      6560      6563      6566
      6558      6557      6560      6561      6558      6557      6560      6562
      6558      6557      6560      6563      6559      6557      6560      6561
      6559      6557      6560      6562      6559      6557      6560      6563
      6560      6563      6566      6567      6560      6563      6566      6568
      6560      6563      6566      6569      6561      6560      6563      6564
      6561      6560      6563      6565      6561      6560      6563      6566
      6562      6560      6563      6564      6562      6560      6563      6565
      6562      6560      6563      6566      6563      6566      6569      6570
      6563      6566      6569      6571      6563      6566      6569      6572
      6564      6563      6566      6567      6564      6563      6566      6568
      6564      6563      6566      6569      6565      6563      6566      6567
      6565      6563      6566      6568      6565      6563      6566      6569
      6566      6569      6572      6573      6566      6569      6572      6574
      6566      6569      6572      6575      6567      6566      6569      6570
      6567      6566      6569      6571      6567      6566      6569      6572
      6568      6566      6569      6570      6568      6566      6569      6571
      6568      6566      6569      6572      6569      6572      6575      6576
      6569      6572      6575      6577      6569      6572      6575      6578
      6570      6569      6572      6573      6570      6569      6572      6574
      6570      6569      6572      6575      6571      6569      6572      6573
      6571      6569      6572      6574      6571      6569      6572      6575
      6572      6575      6578      6579      6572      6575      6578      6580
      6572      6575      6578      6581      6573      6572      6575      6576
      6573      6572      6575      6577      6573      6572      6575      6578
      6574      6572      6575      6576      6574      6572      6575      6577
      6574      6572      6575      6578      6575      6578      6581      6582
      6575      6578      6581      6583      6575      6578      6581      6584
      6576      6575      6578      6579      6576      6575      6578      6580
      6576      6575      6578      6581      6577      6575      6578      6579
      6577      6575      6578      6580      6577      6575      6578      6581
      6578      6581      6584      6585      6578      6581      6584      6586
      6578      6581      6584      6587      6579      6578      6581      6582
      6579      6578      6581      6583      6579      6578      6581      6584
      6580      6578      6581      6582      6580      6578      6581      6583
      6580      6578      6581      6584      6581      6584      6587      6588
      6581      6584      6587      6589      6581      6584      6587      6590
      6582      6581      6584      6585      6582      6581      6584      6586
      6582      6581      6584      6587      6583      6581      6584      6585
      6583      6581      6584      6586      6583      6581      6584      6587
      6584      6587      6590      6591      6584      6587      6590      6592
      6584      6587      6590      6593      6585      6584      6587      6588
      6585      6584      6587      6589      6585      6584      6587      6590
      6586      6584      6587      6588      6586      6584      6587      6589
      6586      6584      6587      6590      6587      6590      6593      6594
      6587      6590      6593      6595      6587      6590      6593      6596
      6588      6587      6590      6591      6588      6587      6590      6592
      6588      6587      6590      6593      6589      6587      6590      6591
      6589      6587      6590      6592      6589      6587      6590      6593
      6591      6590      6593      6594      6591      6590      6593      6595
      6591      6590      6593      6596      6592      6590      6593      6594
      6592      6590      6593      6595      6592      6590      6593      6596
      6597      6602      6604      6605      6597      6602      6606      6607
      6597      6602      6606      6608      6597      6602      6606      6613
      6598      6597      6600      6601      6598      6597      6602      6603
      6598      6597      6602      6604      6598      6597      6602      6606
      6599      6597      6600      6601      6599      6597      6602      6603
      6599      6597      6602      6604      6599      6597      6602      6606
      6600      6597      6602      6603      6600      6597      6602      6604
      6600      6597      6602      6606      6601      6600      6597      6602
      6602      6606      6613      6609      6603      6602      6604      6605
      6603      6602      6606      6607      6603      6602      6606      6608
      6603      6602      6606      6613      6604      6602      6606      6607
      6604      6602      6606      6608      6604      6602      6606      6613
      6605      6604      6602      6606      6606      6613      6609      6610
      6606      6613      6609      6611      6606      6613      6609      6612
      6607      6606      6613      6609      6608      6606      6613      6609
      6609      6612      6614      6615      6609      6612      6614      6616
      6609      6612      6614      6617      6610      6609      6612      6614
      6611      6609      6612      6614      6612      6614      6617      6618
      6612      6614      6617      6619      6612      6614      6617      6625
      6613      6609      6612      6614      6614      6617      6619      6620
      6614      6617      6625      6626      6614      6617      6625      6627
      6614      6617      6625      6628      6615      6614      6617      6618
      6615      6614      6617      6619      6615      6614      6617      6625
      6616      6614      6617      6618      6616      6614      6617      6619
      6616      6614      6617      6625      6617      6619      6620      6621
      6617      6619      6620      6622      6617      6625      6628      6629
      6618      6617      6619      6620      6618      6617      6625      6626
      6618      6617      6625      6627      6618      6617      6625      6628
      6619      6617      6625      6626      6619      6617      6625      6627
      6619      6617      6625      6628      6619      6620      6622      6623
      6619      6620      6622      6624      6619      6620      6622      6634
      6620      6619      6617      6625      6620      6622      6634      6635
      6620      6622      6634      6636      6620      6622      6634      6637
      6621      6620      6622      6623      6621      6620      6622      6624
      6621      6620      6622      6634      6622      6634      6637      6638
      6622      6634      6637      6639      6622      6634      6637      6640
      6623      6622      6634      6635      6623      6622      6634      6636
      6623      6622      6634      6637      6624      6622      6634      6635
      6624      6622      6634      6636      6624      6622      6634      6637
      6625      6628      6629      6630      6625      6628      6629      6631
      6626      6625      6628      6629      6627      6625      6628      6629
      6628      6629      6631      6632      6628      6629      6631      6633
      6628      6629      6631      6678      6629      6631      6678      6679
      6629      6631      6678      6680      6629      6631      6678      6681
      6630      6629      6631      6632      6630      6629      6631      6633
      6630      6629      6631      6678      6631      6678      6681      6682
      6631      6678      6681      6683      6631      6678      6681      6684
      6632      6631      6678      6679      6632      6631      6678      6680
      6632      6631      6678      6681      6633      6631      6678      6679
      6633      6631      6678      6680      6633      6631      6678      6681
      6634      6637      6640      6641      6634      6637      6640      6642
      6634      6637      6640      6643      6635      6634      6637      6638
      6635      6634      6637      6639      6635      6634      6637      6640
      6636      6634      6637      6638      6636      6634      6637      6639
      6636      6634      6637      6640      6637      6640      6643      6644
      6637      6640      6643      6645      6637      6640      6643      6646
      6638      6637      6640      6641      6638      6637      6640      6642
      6638      6637      6640      6643      6639      6637      6640      6641
      6639      6637      6640      6642      6639      6637      6640      6643
      6640      6643      6646      6647      6640      6643      6646      6648
      6640      6643      6646      6649      6641      6640      6643      6644
      6641      6640      6643      6645      6641      6640      6643      6646
      6642      6640      6643      6644      6642      6640      6643      6645
      6642      6640      6643      6646      6643      6646      6649      6650
      6643      6646      6649      6651      6643      6646      6649      6652
      6644      6643      6646      6647      6644      6643      6646      6648
      6644      6643      6646      6649      6645      6643      6646      6647
      6645      6643      6646      6648      6645      6643      6646      6649
      6646      6649      6652      6653      6646      6649      6652      6654
      6646      6649      6652      6657      6647      6646      6649      6650
      6647      6646      6649      6651      6647      6646      6649      6652
      6648      6646      6649      6650      6648      6646      6649      6651
      6648      6646      6649      6652      6649      6652      6654      6655
      6649      6652      6654      6656      6649      6652      6654      6657
      6649      6652      6657      6654      6649      6652      6657      6658
      6649      6652      6657      6659      6650      6649      6652      6653
      6650      6649      6652      6654      6650      6649      6652      6657
      6651      6649      6652      6653      6651      6649      6652      6654
      6651      6649      6652      6657      6652      6654      6657      6658
      6652      6654      6657      6659      6652      6657      6654      6655
      6652      6657      6654      6656      6652      6657      6659      6660
      6652      6657      6659      6661      6652      6657      6659      6662
      6653      6652      6654      6655      6653      6652      6654      6656
      6653      6652      6654      6657      6653      6652      6657      6654
      6653      6652      6657      6658      6653      6652      6657      6659
      6654      6652      6657      6658      6654      6652      6657      6659
      6654      6657      6659      6660      6654      6657      6659      6661
      6654      6657      6659      6662      6655      6654      6652      6657
      6655      6654      6657      6658      6655      6654      6657      6659
      6656      6654      6652      6657      6656      6654      6657      6658
      6656      6654      6657      6659      6657      6659      6662      6663
      6657      6659      6662      6664      6657      6659      6662      6665
      6658      6657      6659      6660      6658      6657      6659      6661
      6658      6657      6659      6662      6659      6662      6665      6666
      6659      6662      6665      6667      6659      6662      6665      6668
      6660      6659      6662      6663      6660      6659      6662      6664
      6660      6659      6662      6665      6661      6659      6662      6663
      6661      6659      6662      6664      6661      6659      6662      6665
      6662      6665      6668      6669      6662      6665      6668      6670
      6662      6665      6668      6671      6663      6662      6665      6666
      6663      6662      6665      6667      6663      6662      6665      6668
      6664      6662      6665      6666      6664      6662      6665      6667
      6664      6662      6665      6668      6665      6668      6671      6672
      6665      6668      6671      6673      6665      6668      6671      6674
      6666      6665      6668      6669      6666      6665      6668      6670
      6666      6665      6668      6671      6667      6665      6668      6669
      6667      6665      6668      6670      6667      6665      6668      6671
      6668      6671      6674      6675      6668      6671      6674      6676
      6668      6671      6674      6677      6669      6668      6671      6672
      6669      6668      6671      6673      6669      6668      6671      6674
      6670      6668      6671      6672      6670      6668      6671      6673
      6670      6668      6671      6674      6672      6671      6674      6675
      6672      6671      6674      6676      6672      6671      6674      6677
      6673      6671      6674      6675      6673      6671      6674      6676
      6673      6671      6674      6677      6678      6681      6684      6685
      6678      6681      6684      6686      6678      6681      6684      6687
      6679      6678      6681      6682      6679      6678      6681      6683
      6679      6678      6681      6684      6680      6678      6681      6682
      6680      6678      6681      6683      6680      6678      6681      6684
      6681      6684      6687      6688      6681      6684      6687      6689
      6681      6684      6687      6690      6682      6681      6684      6685
      6682      6681      6684      6686      6682      6681      6684      6687
      6683      6681      6684      6685      6683      6681      6684      6686
      6683      6681      6684      6687      6684      6687      6690      6691
      6684      6687      6690      6692      6684      6687      6690      6693
      6685      6684      6687      6688      6685      6684      6687      6689
      6685      6684      6687      6690      6686      6684      6687      6688
      6686      6684      6687      6689      6686      6684      6687      6690
      6687      6690      6693      6694      6687      6690      6693      6695
      6687      6690      6693      6696      6688      6687      6690      6691
      6688      6687      6690      6692      6688      6687      6690      6693
      6689      6687      6690      6691      6689      6687      6690      6692
      6689      6687      6690      6693      6690      6693      6696      6697
      6690      6693      6696      6698      6690      6693      6696      6699
      6691      6690      6693      6694      6691      6690      6693      6695
      6691      6690      6693      6696      6692      6690      6693      6694
      6692      6690      6693      6695      6692      6690      6693      6696
      6693      6696      6699      6700      6693      6696      6699      6701
      6693      6696      6699      6702      6694      6693      6696      6697
      6694      6693      6696      6698      6694      6693      6696      6699
      6695      6693      6696      6697      6695      6693      6696      6698
      6695      6693      6696      6699      6696      6699      6702      6703
      6696      6699      6702      6704      6696      6699      6702      6705
      6697      6696      6699      6700      6697      6696      6699      6701
      6697      6696      6699      6702      6698      6696      6699      6700
      6698      6696      6699      6701      6698      6696      6699      6702
      6699      6702      6705      6706      6699      6702      6705      6707
      6699      6702      6705      6708      6700      6699      6702      6703
      6700      6699      6702      6704      6700      6699      6702      6705
      6701      6699      6702      6703      6701      6699      6702      6704
      6701      6699      6702      6705      6702      6705      6708      6709
      6702      6705      6708      6710      6702      6705      6708      6711
      6703      6702      6705      6706      6703      6702      6705      6707
      6703      6702      6705      6708      6704      6702      6705      6706
      6704      6702      6705      6707      6704      6702      6705      6708
      6705      6708      6711      6712      6705      6708      6711      6713
      6705      6708      6711      6714      6706      6705      6708      6709
      6706      6705      6708      6710      6706      6705      6708      6711
      6707      6705      6708      6709      6707      6705      6708      6710
      6707      6705      6708      6711      6708      6711      6714      6715
      6708      6711      6714      6716      6708      6711      6714      6717
      6709      6708      6711      6712      6709      6708      6711      6713
      6709      6708      6711      6714      6710      6708      6711      6712
      6710      6708      6711      6713      6710      6708      6711      6714
      6711      6714      6717      6718      6711      6714      6717      6719
      6711      6714      6717      6720      6712      6711      6714      6715
      6712      6711      6714      6716      6712      6711      6714      6717
      6713      6711      6714      6715      6713      6711      6714      6716
      6713      6711      6714      6717      6715      6714      6717      6718
      6715      6714      6717      6719      6715      6714      6717      6720
      6716      6714      6717      6718      6716      6714      6717      6719
      6716      6714      6717      6720      6721      6726      6728      6729
      6721      6726      6730      6731      6721      6726      6730      6732
      6721      6726      6730      6737      6722      6721      6724      6725
      6722      6721      6726      6727      6722      6721      6726      6728
      6722      6721      6726      6730      6723      6721      6724      6725
      6723      6721      6726      6727      6723      6721      6726      6728
      6723      6721      6726      6730      6724      6721      6726      6727
      6724      6721      6726      6728      6724      6721      6726      6730
      6725      6724      6721      6726      6726      6730      6737      6733
      6727      6726      6728      6729      6727      6726      6730      6731
      6727      6726      6730      6732      6727      6726      6730      6737
      6728      6726      6730      6731      6728      6726      6730      6732
      6728      6726      6730      6737      6729      6728      6726      6730
      6730      6737      6733      6734      6730      6737      6733      6735
      6730      6737      6733      6736      6731      6730      6737      6733
      6732      6730      6737      6733      6733      6736      6738      6739
      6733      6736      6738      6740      6733      6736      6738      6741
      6734      6733      6736      6738      6735      6733      6736      6738
      6736      6738      6741      6742      6736      6738      6741      6743
      6736      6738      6741      6749      6737      6733      6736      6738
      6738      6741      6743      6744      6738      6741      6749      6750
      6738      6741      6749      6751      6738      6741      6749      6752
      6739      6738      6741      6742      6739      6738      6741      6743
      6739      6738      6741      6749      6740      6738      6741      6742
      6740      6738      6741      6743      6740      6738      6741      6749
      6741      6743      6744      6745      6741      6743      6744      6746
      6741      6749      6752      6753      6742      6741      6743      6744
      6742      6741      6749      6750      6742      6741      6749      6751
      6742      6741      6749      6752      6743      6741      6749      6750
      6743      6741      6749      6751      6743      6741      6749      6752
      6743      6744      6746      6747      6743      6744      6746      6748
      6743      6744      6746      6758      6744      6743      6741      6749
      6744      6746      6758      6759      6744      6746      6758      6760
      6744      6746      6758      6761      6745      6744      6746      6747
      6745      6744      6746      6748      6745      6744      6746      6758
      6746      6758      6761      6762      6746      6758      6761      6763
      6746      6758      6761      6764      6747      6746      6758      6759
      6747      6746      6758      6760      6747      6746      6758      6761
      6748      6746      6758      6759      6748      6746      6758      6760
      6748      6746      6758      6761      6749      6752      6753      6754
      6749      6752      6753      6755      6750      6749      6752      6753
      6751      6749      6752      6753      6752      6753      6755      6756
      6752      6753      6755      6757      6752      6753      6755      6799
      6753      6755      6799      6800      6753      6755      6799      6801
      6753      6755      6799      6802      6754      6753      6755      6756
      6754      6753      6755      6757      6754      6753      6755      6799
      6755      6799      6802      6803      6755      6799      6802      6804
      6755      6799      6802      6805      6756      6755      6799      6800
      6756      6755      6799      6801      6756      6755      6799      6802
      6757      6755      6799      6800      6757      6755      6799      6801
      6757      6755      6799      6802      6758      6761      6764      6765
      6758      6761      6764      6766      6758      6761      6764      6767
      6759      6758      6761      6762      6759      6758      6761      6763
      6759      6758      6761      6764      6760      6758      6761      6762
      6760      6758      6761      6763      6760      6758      6761      6764
      6761      6764      6767      6768      6761      6764      6767      6769
      6761      6764      6767      6770      6762      6761      6764      6765
      6762      6761      6764      6766      6762      6761      6764      6767
      6763      6761      6764      6765      6763      6761      6764      6766
      6763      6761      6764      6767      6764      6767      6770      6771
      6764      6767      6770      6772      6764      6767      6770      6773
      6765      6764      6767      6768      6765      6764      6767      6769
      6765      6764      6767      6770      6766      6764      6767      6768
      6766      6764      6767      6769      6766      6764      6767      6770
      6767      6770      6773      6774      6767      6770      6773      6775
      6767      6770      6773      6776      6768      6767      6770      6771
      6768      6767      6770      6772      6768      6767      6770      6773
      6769      6767      6770      6771      6769      6767      6770      6772
      6769      6767      6770      6773      6770      6773      6776      6777
      6770      6773      6776      6778      6771      6770      6773      6774
      6771      6770      6773      6775      6771      6770      6773      6776
      6772      6770      6773      6774      6772      6770      6773      6775
      6772      6770      6773      6776      6773      6776      6778      6779
      6773      6776      6778      6780      6774      6773      6776      6777
      6774      6773      6776      6778      6775      6773      6776      6777
      6775      6773      6776      6778      6776      6778      6780      6781
      6776      6778      6780      6782      6776      6778      6780      6783
      6777      6776      6778      6779      6777      6776      6778      6780
      6778      6780      6783      6784      6778      6780      6783      6785
      6778      6780      6783      6786      6779      6778      6780      6781
      6779      6778      6780      6782      6779      6778      6780      6783
      6780      6783      6786      6787      6780      6783      6786      6788
      6780      6783      6786      6789      6781      6780      6783      6784
      6781      6780      6783      6785      6781      6780      6783      6786
      6782      6780      6783      6784      6782      6780      6783      6785
      6782      6780      6783      6786      6783      6786      6789      6790
      6783      6786      6789      6791      6783      6786      6789      6792
      6784      6783      6786      6787      6784      6783      6786      6788
      6784      6783      6786      6789      6785      6783      6786      6787
      6785      6783      6786      6788      6785      6783      6786      6789
      6786      6789      6792      6793      6786      6789      6792      6794
      6786      6789      6792      6795      6787      6786      6789      6790
      6787      6786      6789      6791      6787      6786      6789      6792
      6788      6786      6789      6790      6788      6786      6789      6791
      6788      6786      6789      6792      6789      6792      6795      6796
      6789      6792      6795      6797      6789      6792      6795      6798
      6790      6789      6792      6793      6790      6789      6792      6794
      6790      6789      6792      6795      6791      6789      6792      6793
      6791      6789      6792      6794      6791      6789      6792      6795
      6793      6792      6795      6796      6793      6792      6795      6797
      6793      6792      6795      6798      6794      6792      6795      6796
      6794      6792      6795      6797      6794      6792      6795      6798
      6799      6802      6805      6806      6799      6802      6805      6807
      6799      6802      6805      6808      6800      6799      6802      6803
      6800      6799      6802      6804      6800      6799      6802      6805
      6801      6799      6802      6803      6801      6799      6802      6804
      6801      6799      6802      6805      6802      6805      6808      6809
      6802      6805      6808      6810      6802      6805      6808      6811
      6803      6802      6805      6806      6803      6802      6805      6807
      6803      6802      6805      6808      6804      6802      6805      6806
      6804      6802      6805      6807      6804      6802      6805      6808
      6805      6808      6811      6812      6805      6808      6811      6813
      6805      6808      6811      6814      6806      6805      6808      6809
      6806      6805      6808      6810      6806      6805      6808      6811
      6807      6805      6808      6809      6807      6805      6808      6810
      6807      6805      6808      6811      6808      6811      6814      6815
      6808      6811      6814      6816      6808      6811      6814      6817
      6809      6808      6811      6812      6809      6808      6811      6813
      6809      6808      6811      6814      6810      6808      6811      6812
      6810      6808      6811      6813      6810      6808      6811      6814
      6811      6814      6817      6818      6811      6814      6817      6819
      6811      6814      6817      6820      6812      6811      6814      6815
      6812      6811      6814      6816      6812      6811      6814      6817
      6813      6811      6814      6815      6813      6811      6814      6816
      6813      6811      6814      6817      6814      6817      6820      6821
      6814      6817      6820      6822      6814      6817      6820      6823
      6815      6814      6817      6818      6815      6814      6817      6819
      6815      6814      6817      6820      6816      6814      6817      6818
      6816      6814      6817      6819      6816      6814      6817      6820
      6817      6820      6823      6824      6817      6820      6823      6825
      6817      6820      6823      6826      6818      6817      6820      6821
      6818      6817      6820      6822      6818      6817      6820      6823
      6819      6817      6820      6821      6819      6817      6820      6822
      6819      6817      6820      6823      6820      6823      6826      6827
      6820      6823      6826      6828      6820      6823      6826      6829
      6821      6820      6823      6824      6821      6820      6823      6825
      6821      6820      6823      6826      6822      6820      6823      6824
      6822      6820      6823      6825      6822      6820      6823      6826
      6823      6826      6829      6830      6823      6826      6829      6831
      6823      6826      6829      6832      6824      6823      6826      6827
      6824      6823      6826      6828      6824      6823      6826      6829
      6825      6823      6826      6827      6825      6823      6826      6828
      6825      6823      6826      6829      6826      6829      6832      6833
      6826      6829      6832      6834      6826      6829      6832      6835
      6827      6826      6829      6830      6827      6826      6829      6831
      6827      6826      6829      6832      6828      6826      6829      6830
      6828      6826      6829      6831      6828      6826      6829      6832
      6829      6832      6835      6836      6829      6832      6835      6837
      6829      6832      6835      6838      6830      6829      6832      6833
      6830      6829      6832      6834      6830      6829      6832      6835
      6831      6829      6832      6833      6831      6829      6832      6834
      6831      6829      6832      6835      6832      6835      6838      6839
      6832      6835      6838      6840      6832      6835      6838      6841
      6833      6832      6835      6836      6833      6832      6835      6837
      6833      6832      6835      6838      6834      6832      6835      6836
      6834      6832      6835      6837      6834      6832      6835      6838
      6836      6835      6838      6839      6836      6835      6838      6840
      6836      6835      6838      6841      6837      6835      6838      6839
      6837      6835      6838      6840      6837      6835      6838      6841
      6842      6846      6849      6850      6842      6846      6849      6851
      6842      6846      6849      6856      6843      6842      6846      6847
      6843      6842      6846      6848      6843      6842      6846      6849
      6844      6842      6846      6847      6844      6842      6846      6848
      6844      6842      6846      6849      6845      6842      6846      6847
      6845      6842      6846      6848      6845      6842      6846      6849
      6846      6849      6856      6852      6847      6846      6849      6850
      6847      6846      6849      6851      6847      6846      6849      6856
      6848      6846      6849      6850      6848      6846      6849      6851
      6848      6846      6849      6856      6849      6856      6852      6853
      6849      6856      6852      6854      6849      6856      6852      6855
      6850      6849      6856      6852      6851      6849      6856      6852
      6852      6855      6857      6858      6852      6855      6857      6859
      6852      6855      6857      6860      6853      6852      6855      6857
      6854      6852      6855      6857      6855      6857      6860      6861
      6855      6857      6860      6862      6855      6857      6860      6868
      6856      6852      6855      6857      6857      6860      6862      6863
      6857      6860      6868      6869      6857      6860      6868      6870
      6857      6860      6868      6871      6858      6857      6860      6861
      6858      6857      6860      6862      6858      6857      6860      6868
      6859      6857      6860      6861      6859      6857      6860      6862
      6859      6857      6860      6868      6860      6862      6863      6864
      6860      6862      6863      6865      6860      6868      6871      6872
      6861      6860      6862      6863      6861      6860      6868      6869
      6861      6860      6868      6870      6861      6860      6868      6871
      6862      6860      6868      6869      6862      6860      6868      6870
      6862      6860      6868      6871      6862      6863      6865      6866
      6862      6863      6865      6867      6862      6863      6865      6877
      6863      6862      6860      6868      6863      6865      6877      6878
      6863      6865      6877      6879      6863      6865      6877      6880
      6864      6863      6865      6866      6864      6863      6865      6867
      6864      6863      6865      6877      6865      6877      6880      6881
      6865      6877      6880      6882      6865      6877      6880      6883
      6866      6865      6877      6878      6866      6865      6877      6879
      6866      6865      6877      6880      6867      6865      6877      6878
      6867      6865      6877      6879      6867      6865      6877      6880
      6868      6871      6872      6873      6868      6871      6872      6874
      6869      6868      6871      6872      6870      6868      6871      6872
      6871      6872      6874      6875      6871      6872      6874      6876
      6871      6872      6874      6921      6872      6874      6921      6922
      6872      6874      6921      6923      6872      6874      6921      6924
      6873      6872      6874      6875      6873      6872      6874      6876
      6873      6872      6874      6921      6874      6921      6924      6925
      6874      6921      6924      6926      6874      6921      6924      6927
      6875      6874      6921      6922      6875      6874      6921      6923
      6875      6874      6921      6924      6876      6874      6921      6922
      6876      6874      6921      6923      6876      6874      6921      6924
      6877      6880      6883      6884      6877      6880      6883      6885
      6877      6880      6883      6886      6878      6877      6880      6881
      6878      6877      6880      6882      6878      6877      6880      6883
      6879      6877      6880      6881      6879      6877      6880      6882
      6879      6877      6880      6883      6880      6883      6886      6887
      6880      6883      6886      6888      6880      6883      6886      6889
      6881      6880      6883      6884      6881      6880      6883      6885
      6881      6880      6883      6886      6882      6880      6883      6884
      6882      6880      6883      6885      6882      6880      6883      6886
      6883      6886      6889      6890      6883      6886      6889      6891
      6883      6886      6889      6892      6884      6883      6886      6887
      6884      6883      6886      6888      6884      6883      6886      6889
      6885      6883      6886      6887      6885      6883      6886      6888
      6885      6883      6886      6889      6886      6889      6892      6893
      6886      6889      6892      6894      6886      6889      6892      6895
      6887      6886      6889      6890      6887      6886      6889      6891
      6887      6886      6889      6892      6888      6886      6889      6890
      6888      6886      6889      6891      6888      6886      6889      6892
      6889      6892      6895      6896      6889      6892      6895      6897
      6889      6892      6895      6900      6890      6889      6892      6893
      6890      6889      6892      6894      6890      6889      6892      6895
      6891      6889      6892      6893      6891      6889      6892      6894
      6891      6889      6892      6895      6892      6895      6897      6898
      6892      6895      6897      6899      6892      6895      6897      6900
      6892      6895      6900      6897      6892      6895      6900      6901
      6892      6895      6900      6902      6893      6892      6895      6896
      6893      6892      6895      6897      6893      6892      6895      6900
      6894      6892      6895      6896      6894      6892      6895      6897
      6894      6892      6895      6900      6895      6897      6900      6901
      6895      6897      6900      6902      6895      6900      6897      6898
      6895      6900      6897      6899      6895      6900      6902      6903
      6895      6900      6902      6904      6895      6900      6902      6905
      6896      6895      6897      6898      6896      6895      6897      6899
      6896      6895      6897      6900      6896      6895      6900      6897
      6896      6895      6900      6901      6896      6895      6900      6902
      6897      6895      6900      6901      6897      6895      6900      6902
      6897      6900      6902      6903      6897      6900      6902      6904
      6897      6900      6902      6905      6898      6897      6895      6900
      6898      6897      6900      6901      6898      6897      6900      6902
      6899      6897      6895      6900      6899      6897      6900      6901
      6899      6897      6900      6902      6900      6902      6905      6906
      6900      6902      6905      6907      6900      6902      6905      6908
      6901      6900      6902      6903      6901      6900      6902      6904
      6901      6900      6902      6905      6902      6905      6908      6909
      6902      6905      6908      6910      6902      6905      6908      6911
      6903      6902      6905      6906      6903      6902      6905      6907
      6903      6902      6905      6908      6904      6902      6905      6906
      6904      6902      6905      6907      6904      6902      6905      6908
      6905      6908      6911      6912      6905      6908      6911      6913
      6905      6908      6911      6914      6906      6905      6908      6909
      6906      6905      6908      6910      6906      6905      6908      6911
      6907      6905      6908      6909      6907      6905      6908      6910
      6907      6905      6908      6911      6908      6911      6914      6915
      6908      6911      6914      6916      6908      6911      6914      6917
      6909      6908      6911      6912      6909      6908      6911      6913
      6909      6908      6911      6914      6910      6908      6911      6912
      6910      6908      6911      6913      6910      6908      6911      6914
      6911      6914      6917      6918      6911      6914      6917      6919
      6911      6914      6917      6920      6912      6911      6914      6915
      6912      6911      6914      6916      6912      6911      6914      6917
      6913      6911      6914      6915      6913      6911      6914      6916
      6913      6911      6914      6917      6915      6914      6917      6918
      6915      6914      6917      6919      6915      6914      6917      6920
      6916      6914      6917      6918      6916      6914      6917      6919
      6916      6914      6917      6920      6921      6924      6927      6928
      6921      6924      6927      6929      6921      6924      6927      6930
      6922      6921      6924      6925      6922      6921      6924      6926
      6922      6921      6924      6927      6923      6921      6924      6925
      6923      6921      6924      6926      6923      6921      6924      6927
      6924      6927      6930      6931      6924      6927      6930      6932
      6924      6927      6930      6933      6925      6924      6927      6928
      6925      6924      6927      6929      6925      6924      6927      6930
      6926      6924      6927      6928      6926      6924      6927      6929
      6926      6924      6927      6930      6927      6930      6933      6934
      6927      6930      6933      6935      6927      6930      6933      6936
      6928      6927      6930      6931      6928      6927      6930      6932
      6928      6927      6930      6933      6929      6927      6930      6931
      6929      6927      6930      6932      6929      6927      6930      6933
      6930      6933      6936      6937      6930      6933      6936      6938
      6930      6933      6936      6939      6931      6930      6933      6934
      6931      6930      6933      6935      6931      6930      6933      6936
      6932      6930      6933      6934      6932      6930      6933      6935
      6932      6930      6933      6936      6933      6936      6939      6940
      6933      6936      6939      6941      6933      6936      6939      6942
      6934      6933      6936      6937      6934      6933      6936      6938
      6934      6933      6936      6939      6935      6933      6936      6937
      6935      6933      6936      6938      6935      6933      6936      6939
      6936      6939      6942      6943      6936      6939      6942      6944
      6936      6939      6942      6945      6937      6936      6939      6940
      6937      6936      6939      6941      6937      6936      6939      6942
      6938      6936      6939      6940      6938      6936      6939      6941
      6938      6936      6939      6942      6939      6942      6945      6946
      6939      6942      6945      6947      6939      6942      6945      6948
      6940      6939      6942      6943      6940      6939      6942      6944
      6940      6939      6942      6945      6941      6939      6942      6943
      6941      6939      6942      6944      6941      6939      6942      6945
      6942      6945      6948      6949      6942      6945      6948      6950
      6942      6945      6948      6951      6943      6942      6945      6946
      6943      6942      6945      6947      6943      6942      6945      6948
      6944      6942      6945      6946      6944      6942      6945      6947
      6944      6942      6945      6948      6945      6948      6951      6952
      6945      6948      6951      6953      6945      6948      6951      6954
      6946      6945      6948      6949      6946      6945      6948      6950
      6946      6945      6948      6951      6947      6945      6948      6949
      6947      6945      6948      6950      6947      6945      6948      6951
      6948      6951      6954      6955      6948      6951      6954      6956
      6948      6951      6954      6957      6949      6948      6951      6952
      6949      6948      6951      6953      6949      6948      6951      6954
      6950      6948      6951      6952      6950      6948      6951      6953
      6950      6948      6951      6954      6951      6954      6957      6958
      6951      6954      6957      6959      6951      6954      6957      6960
      6952      6951      6954      6955      6952      6951      6954      6956
      6952      6951      6954      6957      6953      6951      6954      6955
      6953      6951      6954      6956      6953      6951      6954      6957
      6954      6957      6960      6961      6954      6957      6960      6962
      6954      6957      6960      6963      6955      6954      6957      6958
      6955      6954      6957      6959      6955      6954      6957      6960
      6956      6954      6957      6958      6956      6954      6957      6959
      6956      6954      6957      6960      6958      6957      6960      6961
      6958      6957      6960      6962      6958      6957      6960      6963
      6959      6957      6960      6961      6959      6957      6960      6962
      6959      6957      6960      6963      6964      6968      6971      6972
      6964      6968      6971      6973      6964      6968      6971      6978
      6965      6964      6968      6969      6965      6964      6968      6970
      6965      6964      6968      6971      6966      6964      6968      6969
      6966      6964      6968      6970      6966      6964      6968      6971
      6967      6964      6968      6969      6967      6964      6968      6970
      6967      6964      6968      6971      6968      6971      6978      6974
      6969      6968      6971      6972      6969      6968      6971      6973
      6969      6968      6971      6978      6970      6968      6971      6972
      6970      6968      6971      6973      6970      6968      6971      6978
      6971      6978      6974      6975      6971      6978      6974      6976
      6971      6978      6974      6977      6972      6971      6978      6974
      6973      6971      6978      6974      6974      6977      6979      6980
      6974      6977      6979      6981      6974      6977      6979      6982
      6975      6974      6977      6979      6976      6974      6977      6979
      6977      6979      6982      6983      6977      6979      6982      6984
      6977      6979      6982      6990      6978      6974      6977      6979
      6979      6982      6984      6985      6979      6982      6990      6991
      6979      6982      6990      6992      6979      6982      6990      6993
      6980      6979      6982      6983      6980      6979      6982      6984
      6980      6979      6982      6990      6981      6979      6982      6983
      6981      6979      6982      6984      6981      6979      6982      6990
      6982      6984      6985      6986      6982      6984      6985      6987
      6982      6990      6993      6994      6983      6982      6984      6985
      6983      6982      6990      6991      6983      6982      6990      6992
      6983      6982      6990      6993      6984      6982      6990      6991
      6984      6982      6990      6992      6984      6982      6990      6993
      6984      6985      6987      6988      6984      6985      6987      6989
      6984      6985      6987      6999      6985      6984      6982      6990
      6985      6987      6999      7000      6985      6987      6999      7001
      6985      6987      6999      7002      6986      6985      6987      6988
      6986      6985      6987      6989      6986      6985      6987      6999
      6987      6999      7002      7003      6987      6999      7002      7004
      6987      6999      7002      7005      6988      6987      6999      7000
      6988      6987      6999      7001      6988      6987      6999      7002
      6989      6987      6999      7000      6989      6987      6999      7001
      6989      6987      6999      7002      6990      6993      6994      6995
      6990      6993      6994      6996      6991      6990      6993      6994
      6992      6990      6993      6994      6993      6994      6996      6997
      6993      6994      6996      6998      6993      6994      6996      7043
      6994      6996      7043      7044      6994      6996      7043      7045
      6994      6996      7043      7046      6995      6994      6996      6997
      6995      6994      6996      6998      6995      6994      6996      7043
      6996      7043      7046      7047      6996      7043      7046      7048
      6996      7043      7046      7049      6997      6996      7043      7044
      6997      6996      7043      7045      6997      6996      7043      7046
      6998      6996      7043      7044      6998      6996      7043      7045
      6998      6996      7043      7046      6999      7002      7005      7006
      6999      7002      7005      7007      6999      7002      7005      7008
      7000      6999      7002      7003      7000      6999      7002      7004
      7000      6999      7002      7005      7001      6999      7002      7003
      7001      6999      7002      7004      7001      6999      7002      7005
      7002      7005      7008      7009      7002      7005      7008      7010
      7002      7005      7008      7011      7003      7002      7005      7006
      7003      7002      7005      7007      7003      7002      7005      7008
      7004      7002      7005      7006      7004      7002      7005      7007
      7004      7002      7005      7008      7005      7008      7011      7012
      7005      7008      7011      7013      7005      7008      7011      7014
      7006      7005      7008      7009      7006      7005      7008      7010
      7006      7005      7008      7011      7007      7005      7008      7009
      7007      7005      7008      7010      7007      7005      7008      7011
      7008      7011      7014      7015      7008      7011      7014      7016
      7008      7011      7014      7017      7009      7008      7011      7012
      7009      7008      7011      7013      7009      7008      7011      7014
      7010      7008      7011      7012      7010      7008      7011      7013
      7010      7008      7011      7014      7011      7014      7017      7018
      7011      7014      7017      7019      7011      7014      7017      7022
      7012      7011      7014      7015      7012      7011      7014      7016
      7012      7011      7014      7017      7013      7011      7014      7015
      7013      7011      7014      7016      7013      7011      7014      7017
      7014      7017      7019      7020      7014      7017      7019      7021
      7014      7017      7019      7022      7014      7017      7022      7019
      7014      7017      7022      7023      7014      7017      7022      7024
      7015      7014      7017      7018      7015      7014      7017      7019
      7015      7014      7017      7022      7016      7014      7017      7018
      7016      7014      7017      7019      7016      7014      7017      7022
      7017      7019      7022      7023      7017      7019      7022      7024
      7017      7022      7019      7020      7017      7022      7019      7021
      7017      7022      7024      7025      7017      7022      7024      7026
      7017      7022      7024      7027      7018      7017      7019      7020
      7018      7017      7019      7021      7018      7017      7019      7022
      7018      7017      7022      7019      7018      7017      7022      7023
      7018      7017      7022      7024      7019      7017      7022      7023
      7019      7017      7022      7024      7019      7022      7024      7025
      7019      7022      7024      7026      7019      7022      7024      7027
      7020      7019      7017      7022      7020      7019      7022      7023
      7020      7019      7022      7024      7021      7019      7017      7022
      7021      7019      7022      7023      7021      7019      7022      7024
      7022      7024      7027      7028      7022      7024      7027      7029
      7022      7024      7027      7030      7023      7022      7024      7025
      7023      7022      7024      7026      7023      7022      7024      7027
      7024      7027      7030      7031      7024      7027      7030      7032
      7024      7027      7030      7033      7025      7024      7027      7028
      7025      7024      7027      7029      7025      7024      7027      7030
      7026      7024      7027      7028      7026      7024      7027      7029
      7026      7024      7027      7030      7027      7030      7033      7034
      7027      7030      7033      7035      7027      7030      7033      7036
      7028      7027      7030      7031      7028      7027      7030      7032
      7028      7027      7030      7033      7029      7027      7030      7031
      7029      7027      7030      7032      7029      7027      7030      7033
      7030      7033      7036      7037      7030      7033      7036      7038
      7030      7033      7036      7039      7031      7030      7033      7034
      7031      7030      7033      7035      7031      7030      7033      7036
      7032      7030      7033      7034      7032      7030      7033      7035
      7032      7030      7033      7036      7033      7036      7039      7040
      7033      7036      7039      7041      7033      7036      7039      7042
      7034      7033      7036      7037      7034      7033      7036      7038
      7034      7033      7036      7039      7035      7033      7036      7037
      7035      7033      7036      7038      7035      7033      7036      7039
      7037      7036      7039      7040      7037      7036      7039      7041
      7037      7036      7039      7042      7038      7036      7039      7040
      7038      7036      7039      7041      7038      7036      7039      7042
      7043      7046      7049      7050      7043      7046      7049      7051
      7043      7046      7049      7052      7044      7043      7046      7047
      7044      7043      7046      7048      7044      7043      7046      7049
      7045      7043      7046      7047      7045      7043      7046      7048
      7045      7043      7046      7049      7046      7049      7052      7053
      7046      7049      7052      7054      7046      7049      7052      7055
      7047      7046      7049      7050      7047      7046      7049      7051
      7047      7046      7049      7052      7048      7046      7049      7050
      7048      7046      7049      7051      7048      7046      7049      7052
      7049      7052      7055      7056      7049      7052      7055      7057
      7049      7052      7055      7058      7050      7049      7052      7053
      7050      7049      7052      7054      7050      7049      7052      7055
      7051      7049      7052      7053      7051      7049      7052      7054
      7051      7049      7052      7055      7052      7055      7058      7059
      7052      7055      7058      7060      7052      7055      7058      7061
      7053      7052      7055      7056      7053      7052      7055      7057
      7053      7052      7055      7058      7054      7052      7055      7056
      7054      7052      7055      7057      7054      7052      7055      7058
      7055      7058      7061      7062      7055      7058      7061      7063
      7055      7058      7061      7064      7056      7055      7058      7059
      7056      7055      7058      7060      7056      7055      7058      7061
      7057      7055      7058      7059      7057      7055      7058      7060
      7057      7055      7058      7061      7058      7061      7064      7065
      7058      7061      7064      7066      7058      7061      7064      7067
      7059      7058      7061      7062      7059      7058      7061      7063
      7059      7058      7061      7064      7060      7058      7061      7062
      7060      7058      7061      7063      7060      7058      7061      7064
      7061      7064      7067      7068      7061      7064      7067      7069
      7061      7064      7067      7070      7062      7061      7064      7065
      7062      7061      7064      7066      7062      7061      7064      7067
      7063      7061      7064      7065      7063      7061      7064      7066
      7063      7061      7064      7067      7064      7067      7070      7071
      7064      7067      7070      7072      7064      7067      7070      7073
      7065      7064      7067      7068      7065      7064      7067      7069
      7065      7064      7067      7070      7066      7064      7067      7068
      7066      7064      7067      7069      7066      7064      7067      7070
      7067      7070      7073      7074      7067      7070      7073      7075
      7067      7070      7073      7076      7068      7067      7070      7071
      7068      7067      7070      7072      7068      7067      7070      7073
      7069      7067      7070      7071      7069      7067      7070      7072
      7069      7067      7070      7073      7070      7073      7076      7077
      7070      7073      7076      7078      7070      7073      7076      7079
      7071      7070      7073      7074      7071      7070      7073      7075
      7071      7070      7073      7076      7072      7070      7073      7074
      7072      7070      7073      7075      7072      7070      7073      7076
      7073      7076      7079      7080      7073      7076      7079      7081
      7073      7076      7079      7082      7074      7073      7076      7077
      7074      7073      7076      7078      7074      7073      7076      7079
      7075      7073      7076      7077      7075      7073      7076      7078
      7075      7073      7076      7079      7077      7076      7079      7080
      7077      7076      7079      7081      7077      7076      7079      7082
      7078      7076      7079      7080      7078      7076      7079      7081
      7078      7076      7079      7082      7083      7087      7090      7091
      7083      7087      7090      7092      7083      7087      7090      7097
      7084      7083      7087      7088      7084      7083      7087      7089
      7084      7083      7087      7090      7085      7083      7087      7088
      7085      7083      7087      7089      7085      7083      7087      7090
      7086      7083      7087      7088      7086      7083      7087      7089
      7086      7083      7087      7090      7087      7090      7097      7093
      7088      7087      7090      7091      7088      7087      7090      7092
      7088      7087      7090      7097      7089      7087      7090      7091
      7089      7087      7090      7092      7089      7087      7090      7097
      7090      7097      7093      7094      7090      7097      7093      7095
      7090      7097      7093      7096      7091      7090      7097      7093
      7092      7090      7097      7093      7093      7096      7098      7099
      7093      7096      7098      7100      7093      7096      7098      7101
      7094      7093      7096      7098      7095      7093      7096      7098
      7096      7098      7101      7102      7096      7098      7101      7103
      7096      7098      7101      7109      7097      7093      7096      7098
      7098      7101      7103      7104      7098      7101      7109      7110
      7098      7101      7109      7111      7098      7101      7109      7112
      7099      7098      7101      7102      7099      7098      7101      7103
      7099      7098      7101      7109      7100      7098      7101      7102
      7100      7098      7101      7103      7100      7098      7101      7109
      7101      7103      7104      7105      7101      7103      7104      7106
      7101      7109      7112      7113      7102      7101      7103      7104
      7102      7101      7109      7110      7102      7101      7109      7111
      7102      7101      7109      7112      7103      7101      7109      7110
      7103      7101      7109      7111      7103      7101      7109      7112
      7103      7104      7106      7107      7103      7104      7106      7108
      7103      7104      7106      7118      7104      7103      7101      7109
      7104      7106      7118      7119      7104      7106      7118      7120
      7104      7106      7118      7121      7105      7104      7106      7107
      7105      7104      7106      7108      7105      7104      7106      7118
      7106      7118      7121      7122      7106      7118      7121      7123
      7106      7118      7121      7124      7107      7106      7118      7119
      7107      7106      7118      7120      7107      7106      7118      7121
      7108      7106      7118      7119      7108      7106      7118      7120
      7108      7106      7118      7121      7109      7112      7113      7114
      7109      7112      7113      7115      7110      7109      7112      7113
      7111      7109      7112      7113      7112      7113      7115      7116
      7112      7113      7115      7117      7112      7113      7115      7162
      7113      7115      7162      7163      7113      7115      7162      7164
      7113      7115      7162      7165      7114      7113      7115      7116
      7114      7113      7115      7117      7114      7113      7115      7162
      7115      7162      7165      7166      7115      7162      7165      7167
      7115      7162      7165      7168      7116      7115      7162      7163
      7116      7115      7162      7164      7116      7115      7162      7165
      7117      7115      7162      7163      7117      7115      7162      7164
      7117      7115      7162      7165      7118      7121      7124      7125
      7118      7121      7124      7126      7118      7121      7124      7127
      7119      7118      7121      7122      7119      7118      7121      7123
      7119      7118      7121      7124      7120      7118      7121      7122
      7120      7118      7121      7123      7120      7118      7121      7124
      7121      7124      7127      7128      7121      7124      7127      7129
      7121      7124      7127      7130      7122      7121      7124      7125
      7122      7121      7124      7126      7122      7121      7124      7127
      7123      7121      7124      7125      7123      7121      7124      7126
      7123      7121      7124      7127      7124      7127      7130      7131
      7124      7127      7130      7132      7124      7127      7130      7133
      7125      7124      7127      7128      7125      7124      7127      7129
      7125      7124      7127      7130      7126      7124      7127      7128
      7126      7124      7127      7129      7126      7124      7127      7130
      7127      7130      7133      7134      7127      7130      7133      7135
      7127      7130      7133      7136      7128      7127      7130      7131
      7128      7127      7130      7132      7128      7127      7130      7133
      7129      7127      7130      7131      7129      7127      7130      7132
      7129      7127      7130      7133      7130      7133      7136      7137
      7130      7133      7136      7138      7130      7133      7136      7141
      7131      7130      7133      7134      7131      7130      7133      7135
      7131      7130      7133      7136      7132      7130      7133      7134
      7132      7130      7133      7135      7132      7130      7133      7136
      7133      7136      7138      7139      7133      7136      7138      7140
      7133      7136      7138      7141      7133      7136      7141      7138
      7133      7136      7141      7142      7133      7136      7141      7143
      7134      7133      7136      7137      7134      7133      7136      7138
      7134      7133      7136      7141      7135      7133      7136      7137
      7135      7133      7136      7138      7135      7133      7136      7141
      7136      7138      7141      7142      7136      7138      7141      7143
      7136      7141      7138      7139      7136      7141      7138      7140
      7136      7141      7143      7144      7136      7141      7143      7145
      7136      7141      7143      7146      7137      7136      7138      7139
      7137      7136      7138      7140      7137      7136      7138      7141
      7137      7136      7141      7138      7137      7136      7141      7142
      7137      7136      7141      7143      7138      7136      7141      7142
      7138      7136      7141      7143      7138      7141      7143      7144
      7138      7141      7143      7145      7138      7141      7143      7146
      7139      7138      7136      7141      7139      7138      7141      7142
      7139      7138      7141      7143      7140      7138      7136      7141
      7140      7138      7141      7142      7140      7138      7141      7143
      7141      7143      7146      7147      7141      7143      7146      7148
      7141      7143      7146      7149      7142      7141      7143      7144
      7142      7141      7143      7145      7142      7141      7143      7146
      7143      7146      7149      7150      7143      7146      7149      7151
      7143      7146      7149      7152      7144      7143      7146      7147
      7144      7143      7146      7148      7144      7143      7146      7149
      7145      7143      7146      7147      7145      7143      7146      7148
      7145      7143      7146      7149      7146      7149      7152      7153
      7146      7149      7152      7154      7146      7149      7152      7155
      7147      7146      7149      7150      7147      7146      7149      7151
      7147      7146      7149      7152      7148      7146      7149      7150
      7148      7146      7149      7151      7148      7146      7149      7152
      7149      7152      7155      7156      7149      7152      7155      7157
      7149      7152      7155      7158      7150      7149      7152      7153
      7150      7149      7152      7154      7150      7149      7152      7155
      7151      7149      7152      7153      7151      7149      7152      7154
      7151      7149      7152      7155      7152      7155      7158      7159
      7152      7155      7158      7160      7152      7155      7158      7161
      7153      7152      7155      7156      7153      7152      7155      7157
      7153      7152      7155      7158      7154      7152      7155      7156
      7154      7152      7155      7157      7154      7152      7155      7158
      7156      7155      7158      7159      7156      7155      7158      7160
      7156      7155      7158      7161      7157      7155      7158      7159
      7157      7155      7158      7160      7157      7155      7158      7161
      7162      7165      7168      7169      7162      7165      7168      7170
      7162      7165      7168      7171      7163      7162      7165      7166
      7163      7162      7165      7167      7163      7162      7165      7168
      7164      7162      7165      7166      7164      7162      7165      7167
      7164      7162      7165      7168      7165      7168      7171      7172
      7165      7168      7171      7173      7165      7168      7171      7174
      7166      7165      7168      7169      7166      7165      7168      7170
      7166      7165      7168      7171      7167      7165      7168      7169
      7167      7165      7168      7170      7167      7165      7168      7171
      7168      7171      7174      7175      7168      7171      7174      7176
      7168      7171      7174      7177      7169      7168      7171      7172
      7169      7168      7171      7173      7169      7168      7171      7174
      7170      7168      7171      7172      7170      7168      7171      7173
      7170      7168      7171      7174      7171      7174      7177      7178
      7171      7174      7177      7179      7171      7174      7177      7180
      7172      7171      7174      7175      7172      7171      7174      7176
      7172      7171      7174      7177      7173      7171      7174      7175
      7173      7171      7174      7176      7173      7171      7174      7177
      7174      7177      7180      7181      7174      7177      7180      7182
      7174      7177      7180      7183      7175      7174      7177      7178
      7175      7174      7177      7179      7175      7174      7177      7180
      7176      7174      7177      7178      7176      7174      7177      7179
      7176      7174      7177      7180      7177      7180      7183      7184
      7177      7180      7183      7185      7177      7180      7183      7186
      7178      7177      7180      7181      7178      7177      7180      7182
      7178      7177      7180      7183      7179      7177      7180      7181
      7179      7177      7180      7182      7179      7177      7180      7183
      7180      7183      7186      7187      7180      7183      7186      7188
      7180      7183      7186      7189      7181      7180      7183      7184
      7181      7180      7183      7185      7181      7180      7183      7186
      7182      7180      7183      7184      7182      7180      7183      7185
      7182      7180      7183      7186      7183      7186      7189      7190
      7183      7186      7189      7191      7183      7186      7189      7192
      7184      7183      7186      7187      7184      7183      7186      7188
      7184      7183      7186      7189      7185      7183      7186      7187
      7185      7183      7186      7188      7185      7183      7186      7189
      7186      7189      7192      7193      7186      7189      7192      7194
      7186      7189      7192      7195      7187      7186      7189      7190
      7187      7186      7189      7191      7187      7186      7189      7192
      7188      7186      7189      7190      7188      7186      7189      7191
      7188      7186      7189      7192      7189      7192      7195      7196
      7189      7192      7195      7197      7189      7192      7195      7198
      7190      7189      7192      7193      7190      7189      7192      7194
      7190      7189      7192      7195      7191      7189      7192      7193
      7191      7189      7192      7194      7191      7189      7192      7195
      7192      7195      7198      7199      7192      7195      7198      7200
      7192      7195      7198      7201      7193      7192      7195      7196
      7193      7192      7195      7197      7193      7192      7195      7198
      7194      7192      7195      7196      7194      7192      7195      7197
      7194      7192      7195      7198      7196      7195      7198      7199
      7196      7195      7198      7200      7196      7195      7198      7201
      7197      7195      7198      7199      7197      7195      7198      7200
      7197      7195      7198      7201      7202      7206      7209      7210
      7202      7206      7209      7211      7202      7206      7209      7216
      7203      7202      7206      7207      7203      7202      7206      7208
      7203      7202      7206      7209      7204      7202      7206      7207
      7204      7202      7206      7208      7204      7202      7206      7209
      7205      7202      7206      7207      7205      7202      7206      7208
      7205      7202      7206      7209      7206      7209      7216      7212
      7207      7206      7209      7210      7207      7206      7209      7211
      7207      7206      7209      7216      7208      7206      7209      7210
      7208      7206      7209      7211      7208      7206      7209      7216
      7209      7216      7212      7213      7209      7216      7212      7214
      7209      7216      7212      7215      7210      7209      7216      7212
      7211      7209      7216      7212      7212      7215      7217      7218
      7212      7215      7217      7219      7212      7215      7217      7220
      7213      7212      7215      7217      7214      7212      7215      7217
      7215      7217      7220      7221      7215      7217      7220      7222
      7215      7217      7220      7228      7216      7212      7215      7217
      7217      7220      7222      7223      7217      7220      7228      7229
      7217      7220      7228      7230      7217      7220      7228      7231
      7218      7217      7220      7221      7218      7217      7220      7222
      7218      7217      7220      7228      7219      7217      7220      7221
      7219      7217      7220      7222      7219      7217      7220      7228
      7220      7222      7223      7224      7220      7222      7223      7225
      7220      7228      7231      7232      7221      7220      7222      7223
      7221      7220      7228      7229      7221      7220      7228      7230
      7221      7220      7228      7231      7222      7220      7228      7229
      7222      7220      7228      7230      7222      7220      7228      7231
      7222      7223      7225      7226      7222      7223      7225      7227
      7222      7223      7225      7237      7223      7222      7220      7228
      7223      7225      7237      7238      7223      7225      7237      7239
      7223      7225      7237      7240      7224      7223      7225      7226
      7224      7223      7225      7227      7224      7223      7225      7237
      7225      7237      7240      7241      7225      7237      7240      7242
      7225      7237      7240      7243      7226      7225      7237      7238
      7226      7225      7237      7239      7226      7225      7237      7240
      7227      7225      7237      7238      7227      7225      7237      7239
      7227      7225      7237      7240      7228      7231      7232      7233
      7228      7231      7232      7234      7229      7228      7231      7232
      7230      7228      7231      7232      7231      7232      7234      7235
      7231      7232      7234      7236      7231      7232      7234      7281
      7232      7234      7281      7282      7232      7234      7281      7283
      7232      7234      7281      7284      7233      7232      7234      7235
      7233      7232      7234      7236      7233      7232      7234      7281
      7234      7281      7284      7285      7234      7281      7284      7286
      7234      7281      7284      7287      7235      7234      7281      7282
      7235      7234      7281      7283      7235      7234      7281      7284
      7236      7234      7281      7282      7236      7234      7281      7283
      7236      7234      7281      7284      7237      7240      7243      7244
      7237      7240      7243      7245      7237      7240      7243      7246
      7238      7237      7240      7241      7238      7237      7240      7242
      7238      7237      7240      7243      7239      7237      7240      7241
      7239      7237      7240      7242      7239      7237      7240      7243
      7240      7243      7246      7247      7240      7243      7246      7248
      7240      7243      7246      7249      7241      7240      7243      7244
      7241      7240      7243      7245      7241      7240      7243      7246
      7242      7240      7243      7244      7242      7240      7243      7245
      7242      7240      7243      7246      7243      7246      7249      7250
      7243      7246      7249      7251      7243      7246      7249      7252
      7244      7243      7246      7247      7244      7243      7246      7248
      7244      7243      7246      7249      7245      7243      7246      7247
      7245      7243      7246      7248      7245      7243      7246      7249
      7246      7249      7252      7253      7246      7249      7252      7254
      7246      7249      7252      7255      7247      7246      7249      7250
      7247      7246      7249      7251      7247      7246      7249      7252
      7248      7246      7249      7250      7248      7246      7249      7251
      7248      7246      7249      7252      7249      7252      7255      7256
      7249      7252      7255      7257      7249      7252      7255      7260
      7250      7249      7252      7253      7250      7249      7252      7254
      7250      7249      7252      7255      7251      7249      7252      7253
      7251      7249      7252      7254      7251      7249      7252      7255
      7252      7255      7257      7258      7252      7255      7257      7259
      7252      7255      7257      7260      7252      7255      7260      7257
      7252      7255      7260      7261      7252      7255      7260      7262
      7253      7252      7255      7256      7253      7252      7255      7257
      7253      7252      7255      7260      7254      7252      7255      7256
      7254      7252      7255      7257      7254      7252      7255      7260
      7255      7257      7260      7261      7255      7257      7260      7262
      7255      7260      7257      7258      7255      7260      7257      7259
      7255      7260      7262      7263      7255      7260      7262      7264
      7255      7260      7262      7265      7256      7255      7257      7258
      7256      7255      7257      7259      7256      7255      7257      7260
      7256      7255      7260      7257      7256      7255      7260      7261
      7256      7255      7260      7262      7257      7255      7260      7261
      7257      7255      7260      7262      7257      7260      7262      7263
      7257      7260      7262      7264      7257      7260      7262      7265
      7258      7257      7255      7260      7258      7257      7260      7261
      7258      7257      7260      7262      7259      7257      7255      7260
      7259      7257      7260      7261      7259      7257      7260      7262
      7260      7262      7265      7266      7260      7262      7265      7267
      7260      7262      7265      7268      7261      7260      7262      7263
      7261      7260      7262      7264      7261      7260      7262      7265
      7262      7265      7268      7269      7262      7265      7268      7270
      7262      7265      7268      7271      7263      7262      7265      7266
      7263      7262      7265      7267      7263      7262      7265      7268
      7264      7262      7265      7266      7264      7262      7265      7267
      7264      7262      7265      7268      7265      7268      7271      7272
      7265      7268      7271      7273      7265      7268      7271      7274
      7266      7265      7268      7269      7266      7265      7268      7270
      7266      7265      7268      7271      7267      7265      7268      7269
      7267      7265      7268      7270      7267      7265      7268      7271
      7268      7271      7274      7275      7268      7271      7274      7276
      7268      7271      7274      7277      7269      7268      7271      7272
      7269      7268      7271      7273      7269      7268      7271      7274
      7270      7268      7271      7272      7270      7268      7271      7273
      7270      7268      7271      7274      7271      7274      7277      7278
      7271      7274      7277      7279      7271      7274      7277      7280
      7272      7271      7274      7275      7272      7271      7274      7276
      7272      7271      7274      7277      7273      7271      7274      7275
      7273      7271      7274      7276      7273      7271      7274      7277
      7275      7274      7277      7278      7275      7274      7277      7279
      7275      7274      7277      7280      7276      7274      7277      7278
      7276      7274      7277      7279      7276      7274      7277      7280
      7281      7284      7287      7288      7281      7284      7287      7289
      7281      7284      7287      7290      7282      7281      7284      7285
      7282      7281      7284      7286      7282      7281      7284      7287
      7283      7281      7284      7285      7283      7281      7284      7286
      7283      7281      7284      7287      7284      7287      7290      7291
      7284      7287      7290      7292      7284      7287      7290      7293
      7285      7284      7287      7288      7285      7284      7287      7289
      7285      7284      7287      7290      7286      7284      7287      7288
      7286      7284      7287      7289      7286      7284      7287      7290
      7287      7290      7293      7294      7287      7290      7293      7295
      7287      7290      7293      7296      7288      7287      7290      7291
      7288      7287      7290      7292      7288      7287      7290      7293
      7289      7287      7290      7291      7289      7287      7290      7292
      7289      7287      7290      7293      7290      7293      7296      7297
      7290      7293      7296      7298      7290      7293      7296      7299
      7291      7290      7293      7294      7291      7290      7293      7295
      7291      7290      7293      7296      7292      7290      7293      7294
      7292      7290      7293      7295      7292      7290      7293      7296
      7293      7296      7299      7300      7293      7296      7299      7301
      7293      7296      7299      7302      7294      7293      7296      7297
      7294      7293      7296      7298      7294      7293      7296      7299
      7295      7293      7296      7297      7295      7293      7296      7298
      7295      7293      7296      7299      7296      7299      7302      7303
      7296      7299      7302      7304      7296      7299      7302      7305
      7297      7296      7299      7300      7297      7296      7299      7301
      7297      7296      7299      7302      7298      7296      7299      7300
      7298      7296      7299      7301      7298      7296      7299      7302
      7299      7302      7305      7306      7299      7302      7305      7307
      7299      7302      7305      7308      7300      7299      7302      7303
      7300      7299      7302      7304      7300      7299      7302      7305
      7301      7299      7302      7303      7301      7299      7302      7304
      7301      7299      7302      7305      7302      7305      7308      7309
      7302      7305      7308      7310      7302      7305      7308      7311
      7303      7302      7305      7306      7303      7302      7305      7307
      7303      7302      7305      7308      7304      7302      7305      7306
      7304      7302      7305      7307      7304      7302      7305      7308
      7305      7308      7311      7312      7305      7308      7311      7313
      7305      7308      7311      7314      7306      7305      7308      7309
      7306      7305      7308      7310      7306      7305      7308      7311
      7307      7305      7308      7309      7307      7305      7308      7310
      7307      7305      7308      7311      7308      7311      7314      7315
      7308      7311      7314      7316      7308      7311      7314      7317
      7309      7308      7311      7312      7309      7308      7311      7313
      7309      7308      7311      7314      7310      7308      7311      7312
      7310      7308      7311      7313      7310      7308      7311      7314
      7311      7314      7317      7318      7311      7314      7317      7319
      7311      7314      7317      7320      7312      7311      7314      7315
      7312      7311      7314      7316      7312      7311      7314      7317
      7313      7311      7314      7315      7313      7311      7314      7316
      7313      7311      7314      7317      7315      7314      7317      7318
      7315      7314      7317      7319      7315      7314      7317      7320
      7316      7314      7317      7318      7316      7314      7317      7319
      7316      7314      7317      7320      7321      7325      7328      7329
      7321      7325      7328      7330      7321      7325      7328      7335
      7322      7321      7325      7326      7322      7321      7325      7327
      7322      7321      7325      7328      7323      7321      7325      7326
      7323      7321      7325      7327      7323      7321      7325      7328
      7324      7321      7325      7326      7324      7321      7325      7327
      7324      7321      7325      7328      7325      7328      7335      7331
      7326      7325      7328      7329      7326      7325      7328      7330
      7326      7325      7328      7335      7327      7325      7328      7329
      7327      7325      7328      7330      7327      7325      7328      7335
      7328      7335      7331      7332      7328      7335      7331      7333
      7328      7335      7331      7334      7329      7328      7335      7331
      7330      7328      7335      7331      7331      7334      7336      7337
      7331      7334      7336      7338      7331      7334      7336      7339
      7332      7331      7334      7336      7333      7331      7334      7336
      7334      7336      7339      7340      7334      7336      7339      7341
      7334      7336      7339      7347      7335      7331      7334      7336
      7336      7339      7341      7342      7336      7339      7347      7348
      7336      7339      7347      7349      7336      7339      7347      7350
      7337      7336      7339      7340      7337      7336      7339      7341
      7337      7336      7339      7347      7338      7336      7339      7340
      7338      7336      7339      7341      7338      7336      7339      7347
      7339      7341      7342      7343      7339      7341      7342      7344
      7339      7347      7350      7351      7340      7339      7341      7342
      7340      7339      7347      7348      7340      7339      7347      7349
      7340      7339      7347      7350      7341      7339      7347      7348
      7341      7339      7347      7349      7341      7339      7347      7350
      7341      7342      7344      7345      7341      7342      7344      7346
      7341      7342      7344      7356      7342      7341      7339      7347
      7342      7344      7356      7357      7342      7344      7356      7358
      7342      7344      7356      7359      7343      7342      7344      7345
      7343      7342      7344      7346      7343      7342      7344      7356
      7344      7356      7359      7360      7344      7356      7359      7361
      7344      7356      7359      7362      7345      7344      7356      7357
      7345      7344      7356      7358      7345      7344      7356      7359
      7346      7344      7356      7357      7346      7344      7356      7358
      7346      7344      7356      7359      7347      7350      7351      7352
      7347      7350      7351      7353      7348      7347      7350      7351
      7349      7347      7350      7351      7350      7351      7353      7354
      7350      7351      7353      7355      7350      7351      7353      7403
      7351      7353      7403      7404      7351      7353      7403      7405
      7351      7353      7403      7406      7352      7351      7353      7354
      7352      7351      7353      7355      7352      7351      7353      7403
      7353      7403      7406      7407      7353      7403      7406      7408
      7353      7403      7406      7409      7354      7353      7403      7404
      7354      7353      7403      7405      7354      7353      7403      7406
      7355      7353      7403      7404      7355      7353      7403      7405
      7355      7353      7403      7406      7356      7359      7362      7363
      7356      7359      7362      7364      7356      7359      7362      7365
      7357      7356      7359      7360      7357      7356      7359      7361
      7357      7356      7359      7362      7358      7356      7359      7360
      7358      7356      7359      7361      7358      7356      7359      7362
      7359      7362      7365      7366      7359      7362      7365      7367
      7359      7362      7365      7368      7360      7359      7362      7363
      7360      7359      7362      7364      7360      7359      7362      7365
      7361      7359      7362      7363      7361      7359      7362      7364
      7361      7359      7362      7365      7362      7365      7368      7369
      7362      7365      7368      7370      7362      7365      7368      7371
      7363      7362      7365      7366      7363      7362      7365      7367
      7363      7362      7365      7368      7364      7362      7365      7366
      7364      7362      7365      7367      7364      7362      7365      7368
      7365      7368      7371      7372      7365      7368      7371      7373
      7365      7368      7371      7374      7366      7365      7368      7369
      7366      7365      7368      7370      7366      7365      7368      7371
      7367      7365      7368      7369      7367      7365      7368      7370
      7367      7365      7368      7371      7368      7371      7374      7375
      7368      7371      7374      7376      7369      7368      7371      7372
      7369      7368      7371      7373      7369      7368      7371      7374
      7370      7368      7371      7372      7370      7368      7371      7373
      7370      7368      7371      7374      7371      7374      7376      7377
      7371      7374      7376      7378      7372      7371      7374      7375
      7372      7371      7374      7376      7373      7371      7374      7375
      7373      7371      7374      7376      7374      7376      7378      7379
      7374      7376      7378      7380      7374      7376      7378      7381
      7375      7374      7376      7377      7375      7374      7376      7378
      7376      7378      7381      7382      7376      7378      7381      7383
      7376      7378      7381      7384      7377      7376      7378      7379
      7377      7376      7378      7380      7377      7376      7378      7381
      7378      7381      7384      7385      7378      7381      7384      7386
      7378      7381      7384      7387      7379      7378      7381      7382
      7379      7378      7381      7383      7379      7378      7381      7384
      7380      7378      7381      7382      7380      7378      7381      7383
      7380      7378      7381      7384      7381      7384      7387      7388
      7381      7384      7387      7389      7381      7384      7387      7390
      7382      7381      7384      7385      7382      7381      7384      7386
      7382      7381      7384      7387      7383      7381      7384      7385
      7383      7381      7384      7386      7383      7381      7384      7387
      7384      7387      7390      7391      7384      7387      7390      7392
      7384      7387      7390      7393      7385      7384      7387      7388
      7385      7384      7387      7389      7385      7384      7387      7390
      7386      7384      7387      7388      7386      7384      7387      7389
      7386      7384      7387      7390      7387      7390      7393      7394
      7387      7390      7393      7395      7387      7390      7393      7396
      7388      7387      7390      7391      7388      7387      7390      7392
      7388      7387      7390      7393      7389      7387      7390      7391
      7389      7387      7390      7392      7389      7387      7390      7393
      7390      7393      7396      7397      7390      7393      7396      7398
      7390      7393      7396      7399      7391      7390      7393      7394
      7391      7390      7393      7395      7391      7390      7393      7396
      7392      7390      7393      7394      7392      7390      7393      7395
      7392      7390      7393      7396      7393      7396      7399      7400
      7393      7396      7399      7401      7393      7396      7399      7402
      7394      7393      7396      7397      7394      7393      7396      7398
      7394      7393      7396      7399      7395      7393      7396      7397
      7395      7393      7396      7398      7395      7393      7396      7399
      7397      7396      7399      7400      7397      7396      7399      7401
      7397      7396      7399      7402      7398      7396      7399      7400
      7398      7396      7399      7401      7398      7396      7399      7402
      7403      7406      7409      7410      7403      7406      7409      7411
      7403      7406      7409      7412      7404      7403      7406      7407
      7404      7403      7406      7408      7404      7403      7406      7409
      7405      7403      7406      7407      7405      7403      7406      7408
      7405      7403      7406      7409      7406      7409      7412      7413
      7406      7409      7412      7414      7406      7409      7412      7415
      7407      7406      7409      7410      7407      7406      7409      7411
      7407      7406      7409      7412      7408      7406      7409      7410
      7408      7406      7409      7411      7408      7406      7409      7412
      7409      7412      7415      7416      7409      7412      7415      7417
      7409      7412      7415      7418      7410      7409      7412      7413
      7410      7409      7412      7414      7410      7409      7412      7415
      7411      7409      7412      7413      7411      7409      7412      7414
      7411      7409      7412      7415      7412      7415      7418      7419
      7412      7415      7418      7420      7412      7415      7418      7421
      7413      7412      7415      7416      7413      7412      7415      7417
      7413      7412      7415      7418      7414      7412      7415      7416
      7414      7412      7415      7417      7414      7412      7415      7418
      7415      7418      7421      7422      7415      7418      7421      7423
      7415      7418      7421      7424      7416      7415      7418      7419
      7416      7415      7418      7420      7416      7415      7418      7421
      7417      7415      7418      7419      7417      7415      7418      7420
      7417      7415      7418      7421      7418      7421      7424      7425
      7418      7421      7424      7426      7418      7421      7424      7427
      7419      7418      7421      7422      7419      7418      7421      7423
      7419      7418      7421      7424      7420      7418      7421      7422
      7420      7418      7421      7423      7420      7418      7421      7424
      7421      7424      7427      7428      7421      7424      7427      7429
      7421      7424      7427      7430      7422      7421      7424      7425
      7422      7421      7424      7426      7422      7421      7424      7427
      7423      7421      7424      7425      7423      7421      7424      7426
      7423      7421      7424      7427      7424      7427      7430      7431
      7424      7427      7430      7432      7424      7427      7430      7433
      7425      7424      7427      7428      7425      7424      7427      7429
      7425      7424      7427      7430      7426      7424      7427      7428
      7426      7424      7427      7429      7426      7424      7427      7430
      7427      7430      7433      7434      7427      7430      7433      7435
      7427      7430      7433      7436      7428      7427      7430      7431
      7428      7427      7430      7432      7428      7427      7430      7433
      7429      7427      7430      7431      7429      7427      7430      7432
      7429      7427      7430      7433      7430      7433      7436      7437
      7430      7433      7436      7438      7430      7433      7436      7439
      7431      7430      7433      7434      7431      7430      7433      7435
      7431      7430      7433      7436      7432      7430      7433      7434
      7432      7430      7433      7435      7432      7430      7433      7436
      7433      7436      7439      7440      7433      7436      7439      7441
      7433      7436      7439      7442      7434      7433      7436      7437
      7434      7433      7436      7438      7434      7433      7436      7439
      7435      7433      7436      7437      7435      7433      7436      7438
      7435      7433      7436      7439      7436      7439      7442      7443
      7436      7439      7442      7444      7436      7439      7442      7445
      7437      7436      7439      7440      7437      7436      7439      7441
      7437      7436      7439      7442      7438      7436      7439      7440
      7438      7436      7439      7441      7438      7436      7439      7442
      7440      7439      7442      7443      7440      7439      7442      7444
      7440      7439      7442      7445      7441      7439      7442      7443
      7441      7439      7442      7444      7441      7439      7442      7445
      7446      7450      7453      7454      7446      7450      7453      7455
      7446      7450      7453      7460      7447      7446      7450      7451
      7447      7446      7450      7452      7447      7446      7450      7453
      7448      7446      7450      7451      7448      7446      7450      7452
      7448      7446      7450      7453      7449      7446      7450      7451
      7449      7446      7450      7452      7449      7446      7450      7453
      7450      7453      7460      7456      7451      7450      7453      7454
      7451      7450      7453      7455      7451      7450      7453      7460
      7452      7450      7453      7454      7452      7450      7453      7455
      7452      7450      7453      7460      7453      7460      7456      7457
      7453      7460      7456      7458      7453      7460      7456      7459
      7454      7453      7460      7456      7455      7453      7460      7456
      7456      7459      7461      7462      7456      7459      7461      7463
      7456      7459      7461      7464      7457      7456      7459      7461
      7458      7456      7459      7461      7459      7461      7464      7465
      7459      7461      7464      7466      7459      7461      7464      7472
      7460      7456      7459      7461      7461      7464      7466      7467
      7461      7464      7472      7473      7461      7464      7472      7474
      7461      7464      7472      7475      7462      7461      7464      7465
      7462      7461      7464      7466      7462      7461      7464      7472
      7463      7461      7464      7465      7463      7461      7464      7466
      7463      7461      7464      7472      7464      7466      7467      7468
      7464      7466      7467      7469      7464      7472      7475      7476
      7465      7464      7466      7467      7465      7464      7472      7473
      7465      7464      7472      7474      7465      7464      7472      7475
      7466      7464      7472      7473      7466      7464      7472      7474
      7466      7464      7472      7475      7466      7467      7469      7470
      7466      7467      7469      7471      7466      7467      7469      7481
      7467      7466      7464      7472      7467      7469      7481      7482
      7467      7469      7481      7483      7467      7469      7481      7484
      7468      7467      7469      7470      7468      7467      7469      7471
      7468      7467      7469      7481      7469      7481      7484      7485
      7469      7481      7484      7486      7469      7481      7484      7487
      7470      7469      7481      7482      7470      7469      7481      7483
      7470      7469      7481      7484      7471      7469      7481      7482
      7471      7469      7481      7483      7471      7469      7481      7484
      7472      7475      7476      7477      7472      7475      7476      7478
      7473      7472      7475      7476      7474      7472      7475      7476
      7475      7476      7478      7479      7475      7476      7478      7480
      7475      7476      7478      7525      7476      7478      7525      7526
      7476      7478      7525      7527      7476      7478      7525      7528
      7477      7476      7478      7479      7477      7476      7478      7480
      7477      7476      7478      7525      7478      7525      7528      7529
      7478      7525      7528      7530      7478      7525      7528      7531
      7479      7478      7525      7526      7479      7478      7525      7527
      7479      7478      7525      7528      7480      7478      7525      7526
      7480      7478      7525      7527      7480      7478      7525      7528
      7481      7484      7487      7488      7481      7484      7487      7489
      7481      7484      7487      7490      7482      7481      7484      7485
      7482      7481      7484      7486      7482      7481      7484      7487
      7483      7481      7484      7485      7483      7481      7484      7486
      7483      7481      7484      7487      7484      7487      7490      7491
      7484      7487      7490      7492      7484      7487      7490      7493
      7485      7484      7487      7488      7485      7484      7487      7489
      7485      7484      7487      7490      7486      7484      7487      7488
      7486      7484      7487      7489      7486      7484      7487      7490
      7487      7490      7493      7494      7487      7490      7493      7495
      7487      7490      7493      7496      7488      7487      7490      7491
      7488      7487      7490      7492      7488      7487      7490      7493
      7489      7487      7490      7491      7489      7487      7490      7492
      7489      7487      7490      7493      7490      7493      7496      7497
      7490      7493      7496      7498      7490      7493      7496      7499
      7491      7490      7493      7494      7491      7490      7493      7495
      7491      7490      7493      7496      7492      7490      7493      7494
      7492      7490      7493      7495      7492      7490      7493      7496
      7493      7496      7499      7500      7493      7496      7499      7501
      7493      7496      7499      7504      7494      7493      7496      7497
      7494      7493      7496      7498      7494      7493      7496      7499
      7495      7493      7496      7497      7495      7493      7496      7498
      7495      7493      7496      7499      7496      7499      7501      7502
      7496      7499      7501      7503      7496      7499      7501      7504
      7496      7499      7504      7501      7496      7499      7504      7505
      7496      7499      7504      7506      7497      7496      7499      7500
      7497      7496      7499      7501      7497      7496      7499      7504
      7498      7496      7499      7500      7498      7496      7499      7501
      7498      7496      7499      7504      7499      7501      7504      7505
      7499      7501      7504      7506      7499      7504      7501      7502
      7499      7504      7501      7503      7499      7504      7506      7507
      7499      7504      7506      7508      7499      7504      7506      7509
      7500      7499      7501      7502      7500      7499      7501      7503
      7500      7499      7501      7504      7500      7499      7504      7501
      7500      7499      7504      7505      7500      7499      7504      7506
      7501      7499      7504      7505      7501      7499      7504      7506
      7501      7504      7506      7507      7501      7504      7506      7508
      7501      7504      7506      7509      7502      7501      7499      7504
      7502      7501      7504      7505      7502      7501      7504      7506
      7503      7501      7499      7504      7503      7501      7504      7505
      7503      7501      7504      7506      7504      7506      7509      7510
      7504      7506      7509      7511      7504      7506      7509      7512
      7505      7504      7506      7507      7505      7504      7506      7508
      7505      7504      7506      7509      7506      7509      7512      7513
      7506      7509      7512      7514      7506      7509      7512      7515
      7507      7506      7509      7510      7507      7506      7509      7511
      7507      7506      7509      7512      7508      7506      7509      7510
      7508      7506      7509      7511      7508      7506      7509      7512
      7509      7512      7515      7516      7509      7512      7515      7517
      7509      7512      7515      7518      7510      7509      7512      7513
      7510      7509      7512      7514      7510      7509      7512      7515
      7511      7509      7512      7513      7511      7509      7512      7514
      7511      7509      7512      7515      7512      7515      7518      7519
      7512      7515      7518      7520      7512      7515      7518      7521
      7513      7512      7515      7516      7513      7512      7515      7517
      7513      7512      7515      7518      7514      7512      7515      7516
      7514      7512      7515      7517      7514      7512      7515      7518
      7515      7518      7521      7522      7515      7518      7521      7523
      7515      7518      7521      7524      7516      7515      7518      7519
      7516      7515      7518      7520      7516      7515      7518      7521
      7517      7515      7518      7519      7517      7515      7518      7520
      7517      7515      7518      7521      7519      7518      7521      7522
      7519      7518      7521      7523      7519      7518      7521      7524
      7520      7518      7521      7522      7520      7518      7521      7523
      7520      7518      7521      7524      7525      7528      7531      7532
      7525      7528      7531      7533      7525      7528      7531      7534
      7526      7525      7528      7529      7526      7525      7528      7530
      7526      7525      7528      7531      7527      7525      7528      7529
      7527      7525      7528      7530      7527      7525      7528      7531
      7528      7531      7534      7535      7528      7531      7534      7536
      7528      7531      7534      7537      7529      7528      7531      7532
      7529      7528      7531      7533      7529      7528      7531      7534
      7530      7528      7531      7532      7530      7528      7531      7533
      7530      7528      7531      7534      7531      7534      7537      7538
      7531      7534      7537      7539      7531      7534      7537      7540
      7532      7531      7534      7535      7532      7531      7534      7536
      7532      7531      7534      7537      7533      7531      7534      7535
      7533      7531      7534      7536      7533      7531      7534      7537
      7534      7537      7540      7541      7534      7537      7540      7542
      7534      7537      7540      7543      7535      7534      7537      7538
      7535      7534      7537      7539      7535      7534      7537      7540
      7536      7534      7537      7538      7536      7534      7537      7539
      7536      7534      7537      7540      7537      7540      7543      7544
      7537      7540      7543      7545      7537      7540      7543      7546
      7538      7537      7540      7541      7538      7537      7540      7542
      7538      7537      7540      7543      7539      7537      7540      7541
      7539      7537      7540      7542      7539      7537      7540      7543
      7540      7543      7546      7547      7540      7543      7546      7548
      7540      7543      7546      7549      7541      7540      7543      7544
      7541      7540      7543      7545      7541      7540      7543      7546
      7542      7540      7543      7544      7542      7540      7543      7545
      7542      7540      7543      7546      7543      7546      7549      7550
      7543      7546      7549      7551      7543      7546      7549      7552
      7544      7543      7546      7547      7544      7543      7546      7548
      7544      7543      7546      7549      7545      7543      7546      7547
      7545      7543      7546      7548      7545      7543      7546      7549
      7546      7549      7552      7553      7546      7549      7552      7554
      7546      7549      7552      7555      7547      7546      7549      7550
      7547      7546      7549      7551      7547      7546      7549      7552
      7548      7546      7549      7550      7548      7546      7549      7551
      7548      7546      7549      7552      7549      7552      7555      7556
      7549      7552      7555      7557      7549      7552      7555      7558
      7550      7549      7552      7553      7550      7549      7552      7554
      7550      7549      7552      7555      7551      7549      7552      7553
      7551      7549      7552      7554      7551      7549      7552      7555
      7552      7555      7558      7559      7552      7555      7558      7560
      7552      7555      7558      7561      7553      7552      7555      7556
      7553      7552      7555      7557      7553      7552      7555      7558
      7554      7552      7555      7556      7554      7552      7555      7557
      7554      7552      7555      7558      7555      7558      7561      7562
      7555      7558      7561      7563      7555      7558      7561      7564
      7556      7555      7558      7559      7556      7555      7558      7560
      7556      7555      7558      7561      7557      7555      7558      7559
      7557      7555      7558      7560      7557      7555      7558      7561
      7558      7561      7564      7565      7558      7561      7564      7566
      7558      7561      7564      7567      7559      7558      7561      7562
      7559      7558      7561      7563      7559      7558      7561      7564
      7560      7558      7561      7562      7560      7558      7561      7563
      7560      7558      7561      7564      7562      7561      7564      7565
      7562      7561      7564      7566      7562      7561      7564      7567
      7563      7561      7564      7565      7563      7561      7564      7566
      7563      7561      7564      7567      7568      7572      7575      7576
      7568      7572      7575      7577      7568      7572      7575      7582
      7569      7568      7572      7573      7569      7568      7572      7574
      7569      7568      7572      7575      7570      7568      7572      7573
      7570      7568      7572      7574      7570      7568      7572      7575
      7571      7568      7572      7573      7571      7568      7572      7574
      7571      7568      7572      7575      7572      7575      7582      7578
      7573      7572      7575      7576      7573      7572      7575      7577
      7573      7572      7575      7582      7574      7572      7575      7576
      7574      7572      7575      7577      7574      7572      7575      7582
      7575      7582      7578      7579      7575      7582      7578      7580
      7575      7582      7578      7581      7576      7575      7582      7578
      7577      7575      7582      7578      7578      7581      7583      7584
      7578      7581      7583      7585      7578      7581      7583      7586
      7579      7578      7581      7583      7580      7578      7581      7583
      7581      7583      7586      7587      7581      7583      7586      7588
      7581      7583      7586      7594      7582      7578      7581      7583
      7583      7586      7588      7589      7583      7586      7594      7595
      7583      7586      7594      7596      7583      7586      7594      7597
      7584      7583      7586      7587      7584      7583      7586      7588
      7584      7583      7586      7594      7585      7583      7586      7587
      7585      7583      7586      7588      7585      7583      7586      7594
      7586      7588      7589      7590      7586      7588      7589      7591
      7586      7594      7597      7598      7587      7586      7588      7589
      7587      7586      7594      7595      7587      7586      7594      7596
      7587      7586      7594      7597      7588      7586      7594      7595
      7588      7586      7594      7596      7588      7586      7594      7597
      7588      7589      7591      7592      7588      7589      7591      7593
      7588      7589      7591      7603      7589      7588      7586      7594
      7589      7591      7603      7604      7589      7591      7603      7605
      7589      7591      7603      7606      7590      7589      7591      7592
      7590      7589      7591      7593      7590      7589      7591      7603
      7591      7603      7606      7607      7591      7603      7606      7608
      7591      7603      7606      7609      7592      7591      7603      7604
      7592      7591      7603      7605      7592      7591      7603      7606
      7593      7591      7603      7604      7593      7591      7603      7605
      7593      7591      7603      7606      7594      7597      7598      7599
      7594      7597      7598      7600      7595      7594      7597      7598
      7596      7594      7597      7598      7597      7598      7600      7601
      7597      7598      7600      7602      7597      7598      7600      7644
      7598      7600      7644      7645      7598      7600      7644      7646
      7598      7600      7644      7647      7599      7598      7600      7601
      7599      7598      7600      7602      7599      7598      7600      7644
      7600      7644      7647      7648      7600      7644      7647      7649
      7600      7644      7647      7650      7601      7600      7644      7645
      7601      7600      7644      7646      7601      7600      7644      7647
      7602      7600      7644      7645      7602      7600      7644      7646
      7602      7600      7644      7647      7603      7606      7609      7610
      7603      7606      7609      7611      7603      7606      7609      7612
      7604      7603      7606      7607      7604      7603      7606      7608
      7604      7603      7606      7609      7605      7603      7606      7607
      7605      7603      7606      7608      7605      7603      7606      7609
      7606      7609      7612      7613      7606      7609      7612      7614
      7606      7609      7612      7615      7607      7606      7609      7610
      7607      7606      7609      7611      7607      7606      7609      7612
      7608      7606      7609      7610      7608      7606      7609      7611
      7608      7606      7609      7612      7609      7612      7615      7616
      7609      7612      7615      7617      7609      7612      7615      7618
      7610      7609      7612      7613      7610      7609      7612      7614
      7610      7609      7612      7615      7611      7609      7612      7613
      7611      7609      7612      7614      7611      7609      7612      7615
      7612      7615      7618      7619      7612      7615      7618      7620
      7612      7615      7618      7621      7613      7612      7615      7616
      7613      7612      7615      7617      7613      7612      7615      7618
      7614      7612      7615      7616      7614      7612      7615      7617
      7614      7612      7615      7618      7615      7618      7621      7622
      7615      7618      7621      7623      7616      7615      7618      7619
      7616      7615      7618      7620      7616      7615      7618      7621
      7617      7615      7618      7619      7617      7615      7618      7620
      7617      7615      7618      7621      7618      7621      7623      7624
      7618      7621      7623      7625      7619      7618      7621      7622
      7619      7618      7621      7623      7620      7618      7621      7622
      7620      7618      7621      7623      7621      7623      7625      7626
      7621      7623      7625      7627      7621      7623      7625      7628
      7622      7621      7623      7624      7622      7621      7623      7625
      7623      7625      7628      7629      7623      7625      7628      7630
      7623      7625      7628      7631      7624      7623      7625      7626
      7624      7623      7625      7627      7624      7623      7625      7628
      7625      7628      7631      7632      7625      7628      7631      7633
      7625      7628      7631      7634      7626      7625      7628      7629
      7626      7625      7628      7630      7626      7625      7628      7631
      7627      7625      7628      7629      7627      7625      7628      7630
      7627      7625      7628      7631      7628      7631      7634      7635
      7628      7631      7634      7636      7628      7631      7634      7637
      7629      7628      7631      7632      7629      7628      7631      7633
      7629      7628      7631      7634      7630      7628      7631      7632
      7630      7628      7631      7633      7630      7628      7631      7634
      7631      7634      7637      7638      7631      7634      7637      7639
      7631      7634      7637      7640      7632      7631      7634      7635
      7632      7631      7634      7636      7632      7631      7634      7637
      7633      7631      7634      7635      7633      7631      7634      7636
      7633      7631      7634      7637      7634      7637      7640      7641
      7634      7637      7640      7642      7634      7637      7640      7643
      7635      7634      7637      7638      7635      7634      7637      7639
      7635      7634      7637      7640      7636      7634      7637      7638
      7636      7634      7637      7639      7636      7634      7637      7640
      7638      7637      7640      7641      7638      7637      7640      7642
      7638      7637      7640      7643      7639      7637      7640      7641
      7639      7637      7640      7642      7639      7637      7640      7643
      7644      7647      7650      7651      7644      7647      7650      7652
      7644      7647      7650      7653      7645      7644      7647      7648
      7645      7644      7647      7649      7645      7644      7647      7650
      7646      7644      7647      7648      7646      7644      7647      7649
      7646      7644      7647      7650      7647      7650      7653      7654
      7647      7650      7653      7655      7647      7650      7653      7656
      7648      7647      7650      7651      7648      7647      7650      7652
      7648      7647      7650      7653      7649      7647      7650      7651
      7649      7647      7650      7652      7649      7647      7650      7653
      7650      7653      7656      7657      7650      7653      7656      7658
      7650      7653      7656      7659      7651      7650      7653      7654
      7651      7650      7653      7655      7651      7650      7653      7656
      7652      7650      7653      7654      7652      7650      7653      7655
      7652      7650      7653      7656      7653      7656      7659      7660
      7653      7656      7659      7661      7653      7656      7659      7662
      7654      7653      7656      7657      7654      7653      7656      7658
      7654      7653      7656      7659      7655      7653      7656      7657
      7655      7653      7656      7658      7655      7653      7656      7659
      7656      7659      7662      7663      7656      7659      7662      7664
      7657      7656      7659      7660      7657      7656      7659      7661
      7657      7656      7659      7662      7658      7656      7659      7660
      7658      7656      7659      7661      7658      7656      7659      7662
      7659      7662      7664      7665      7659      7662      7664      7666
      7660      7659      7662      7663      7660      7659      7662      7664
      7661      7659      7662      7663      7661      7659      7662      7664
      7662      7664      7666      7667      7662      7664      7666      7668
      7662      7664      7666      7669      7663      7662      7664      7665
      7663      7662      7664      7666      7664      7666      7669      7670
      7664      7666      7669      7671      7664      7666      7669      7672
      7665      7664      7666      7667      7665      7664      7666      7668
      7665      7664      7666      7669      7666      7669      7672      7673
      7666      7669      7672      7674      7666      7669      7672      7675
      7667      7666      7669      7670      7667      7666      7669      7671
      7667      7666      7669      7672      7668      7666      7669      7670
      7668      7666      7669      7671      7668      7666      7669      7672
      7669      7672      7675      7676      7669      7672      7675      7677
      7669      7672      7675      7678      7670      7669      7672      7673
      7670      7669      7672      7674      7670      7669      7672      7675
      7671      7669      7672      7673      7671      7669      7672      7674
      7671      7669      7672      7675      7672      7675      7678      7679
      7672      7675      7678      7680      7672      7675      7678      7681
      7673      7672      7675      7676      7673      7672      7675      7677
      7673      7672      7675      7678      7674      7672      7675      7676
      7674      7672      7675      7677      7674      7672      7675      7678
      7675      7678      7681      7682      7675      7678      7681      7683
      7675      7678      7681      7684      7676      7675      7678      7679
      7676      7675      7678      7680      7676      7675      7678      7681
      7677      7675      7678      7679      7677      7675      7678      7680
      7677      7675      7678      7681      7678      7681      7684      7685
      7678      7681      7684      7686      7678      7681      7684      7687
      7679      7678      7681      7682      7679      7678      7681      7683
      7679      7678      7681      7684      7680      7678      7681      7682
      7680      7678      7681      7683      7680      7678      7681      7684
      7681      7684      7687      7688      7681      7684      7687      7689
      7681      7684      7687      7690      7682      7681      7684      7685
      7682      7681      7684      7686      7682      7681      7684      7687
      7683      7681      7684      7685      7683      7681      7684      7686
      7683      7681      7684      7687      7685      7684      7687      7688
      7685      7684      7687      7689      7685      7684      7687      7690
      7686      7684      7687      7688      7686      7684      7687      7689
      7686      7684      7687      7690      7691      7696      7698      7699
      7691      7696      7700      7701      7691      7696      7700      7702
      7691      7696      7700      7707      7692      7691      7694      7695
      7692      7691      7696      7697      7692      7691      7696      7698
      7692      7691      7696      7700      7693      7691      7694      7695
      7693      7691      7696      7697      7693      7691      7696      7698
      7693      7691      7696      7700      7694      7691      7696      7697
      7694      7691      7696      7698      7694      7691      7696      7700
      7695      7694      7691      7696      7696      7700      7707      7703
      7697      7696      7698      7699      7697      7696      7700      7701
      7697      7696      7700      7702      7697      7696      7700      7707
      7698      7696      7700      7701      7698      7696      7700      7702
      7698      7696      7700      7707      7699      7698      7696      7700
      7700      7707      7703      7704      7700      7707      7703      7705
      7700      7707      7703      7706      7701      7700      7707      7703
      7702      7700      7707      7703      7703      7706      7708      7709
      7703      7706      7708      7710      7703      7706      7708      7711
      7704      7703      7706      7708      7705      7703      7706      7708
      7706      7708      7711      7712      7706      7708      7711      7713
      7706      7708      7711      7719      7707      7703      7706      7708
      7708      7711      7713      7714      7708      7711      7719      7720
      7708      7711      7719      7721      7708      7711      7719      7722
      7709      7708      7711      7712      7709      7708      7711      7713
      7709      7708      7711      7719      7710      7708      7711      7712
      7710      7708      7711      7713      7710      7708      7711      7719
      7711      7713      7714      7715      7711      7713      7714      7716
      7711      7719      7722      7723      7712      7711      7713      7714
      7712      7711      7719      7720      7712      7711      7719      7721
      7712      7711      7719      7722      7713      7711      7719      7720
      7713      7711      7719      7721      7713      7711      7719      7722
      7713      7714      7716      7717      7713      7714      7716      7718
      7713      7714      7716      7728      7714      7713      7711      7719
      7714      7716      7728      7729      7714      7716      7728      7730
      7714      7716      7728      7731      7715      7714      7716      7717
      7715      7714      7716      7718      7715      7714      7716      7728
      7716      7728      7731      7732      7716      7728      7731      7733
      7716      7728      7731      7734      7717      7716      7728      7729
      7717      7716      7728      7730      7717      7716      7728      7731
      7718      7716      7728      7729      7718      7716      7728      7730
      7718      7716      7728      7731      7719      7722      7723      7724
      7719      7722      7723      7725      7720      7719      7722      7723
      7721      7719      7722      7723      7722      7723      7725      7726
      7722      7723      7725      7727      7722      7723      7725      7772
      7723      7725      7772      7773      7723      7725      7772      7774
      7723      7725      7772      7775      7724      7723      7725      7726
      7724      7723      7725      7727      7724      7723      7725      7772
      7725      7772      7775      7776      7725      7772      7775      7777
      7725      7772      7775      7778      7726      7725      7772      7773
      7726      7725      7772      7774      7726      7725      7772      7775
      7727      7725      7772      7773      7727      7725      7772      7774
      7727      7725      7772      7775      7728      7731      7734      7735
      7728      7731      7734      7736      7728      7731      7734      7737
      7729      7728      7731      7732      7729      7728      7731      7733
      7729      7728      7731      7734      7730      7728      7731      7732
      7730      7728      7731      7733      7730      7728      7731      7734
      7731      7734      7737      7738      7731      7734      7737      7739
      7731      7734      7737      7740      7732      7731      7734      7735
      7732      7731      7734      7736      7732      7731      7734      7737
      7733      7731      7734      7735      7733      7731      7734      7736
      7733      7731      7734      7737      7734      7737      7740      7741
      7734      7737      7740      7742      7734      7737      7740      7743
      7735      7734      7737      7738      7735      7734      7737      7739
      7735      7734      7737      7740      7736      7734      7737      7738
      7736      7734      7737      7739      7736      7734      7737      7740
      7737      7740      7743      7744      7737      7740      7743      7745
      7737      7740      7743      7746      7738      7737      7740      7741
      7738      7737      7740      7742      7738      7737      7740      7743
      7739      7737      7740      7741      7739      7737      7740      7742
      7739      7737      7740      7743      7740      7743      7746      7747
      7740      7743      7746      7748      7740      7743      7746      7751
      7741      7740      7743      7744      7741      7740      7743      7745
      7741      7740      7743      7746      7742      7740      7743      7744
      7742      7740      7743      7745      7742      7740      7743      7746
      7743      7746      7748      7749      7743      7746      7748      7750
      7743      7746      7748      7751      7743      7746      7751      7748
      7743      7746      7751      7752      7743      7746      7751      7753
      7744      7743      7746      7747      7744      7743      7746      7748
      7744      7743      7746      7751      7745      7743      7746      7747
      7745      7743      7746      7748      7745      7743      7746      7751
      7746      7748      7751      7752      7746      7748      7751      7753
      7746      7751      7748      7749      7746      7751      7748      7750
      7746      7751      7753      7754      7746      7751      7753      7755
      7746      7751      7753      7756      7747      7746      7748      7749
      7747      7746      7748      7750      7747      7746      7748      7751
      7747      7746      7751      7748      7747      7746      7751      7752
      7747      7746      7751      7753      7748      7746      7751      7752
      7748      7746      7751      7753      7748      7751      7753      7754
      7748      7751      7753      7755      7748      7751      7753      7756
      7749      7748      7746      7751      7749      7748      7751      7752
      7749      7748      7751      7753      7750      7748      7746      7751
      7750      7748      7751      7752      7750      7748      7751      7753
      7751      7753      7756      7757      7751      7753      7756      7758
      7751      7753      7756      7759      7752      7751      7753      7754
      7752      7751      7753      7755      7752      7751      7753      7756
      7753      7756      7759      7760      7753      7756      7759      7761
      7753      7756      7759      7762      7754      7753      7756      7757
      7754      7753      7756      7758      7754      7753      7756      7759
      7755      7753      7756      7757      7755      7753      7756      7758
      7755      7753      7756      7759      7756      7759      7762      7763
      7756      7759      7762      7764      7756      7759      7762      7765
      7757      7756      7759      7760      7757      7756      7759      7761
      7757      7756      7759      7762      7758      7756      7759      7760
      7758      7756      7759      7761      7758      7756      7759      7762
      7759      7762      7765      7766      7759      7762      7765      7767
      7759      7762      7765      7768      7760      7759      7762      7763
      7760      7759      7762      7764      7760      7759      7762      7765
      7761      7759      7762      7763      7761      7759      7762      7764
      7761      7759      7762      7765      7762      7765      7768      7769
      7762      7765      7768      7770      7762      7765      7768      7771
      7763      7762      7765      7766      7763      7762      7765      7767
      7763      7762      7765      7768      7764      7762      7765      7766
      7764      7762      7765      7767      7764      7762      7765      7768
      7766      7765      7768      7769      7766      7765      7768      7770
      7766      7765      7768      7771      7767      7765      7768      7769
      7767      7765      7768      7770      7767      7765      7768      7771
      7772      7775      7778      7779      7772      7775      7778      7780
      7772      7775      7778      7781      7773      7772      7775      7776
      7773      7772      7775      7777      7773      7772      7775      7778
      7774      7772      7775      7776      7774      7772      7775      7777
      7774      7772      7775      7778      7775      7778      7781      7782
      7775      7778      7781      7783      7775      7778      7781      7784
      7776      7775      7778      7779      7776      7775      7778      7780
      7776      7775      7778      7781      7777      7775      7778      7779
      7777      7775      7778      7780      7777      7775      7778      7781
      7778      7781      7784      7785      7778      7781      7784      7786
      7778      7781      7784      7787      7779      7778      7781      7782
      7779      7778      7781      7783      7779      7778      7781      7784
      7780      7778      7781      7782      7780      7778      7781      7783
      7780      7778      7781      7784      7781      7784      7787      7788
      7781      7784      7787      7789      7781      7784      7787      7790
      7782      7781      7784      7785      7782      7781      7784      7786
      7782      7781      7784      7787      7783      7781      7784      7785
      7783      7781      7784      7786      7783      7781      7784      7787
      7784      7787      7790      7791      7784      7787      7790      7792
      7784      7787      7790      7793      7785      7784      7787      7788
      7785      7784      7787      7789      7785      7784      7787      7790
      7786      7784      7787      7788      7786      7784      7787      7789
      7786      7784      7787      7790      7787      7790      7793      7794
      7787      7790      7793      7795      7787      7790      7793      7796
      7788      7787      7790      7791      7788      7787      7790      7792
      7788      7787      7790      7793      7789      7787      7790      7791
      7789      7787      7790      7792      7789      7787      7790      7793
      7790      7793      7796      7797      7790      7793      7796      7798
      7790      7793      7796      7799      7791      7790      7793      7794
      7791      7790      7793      7795      7791      7790      7793      7796
      7792      7790      7793      7794      7792      7790      7793      7795
      7792      7790      7793      7796      7793      7796      7799      7800
      7793      7796      7799      7801      7793      7796      7799      7802
      7794      7793      7796      7797      7794      7793      7796      7798
      7794      7793      7796      7799      7795      7793      7796      7797
      7795      7793      7796      7798      7795      7793      7796      7799
      7796      7799      7802      7803      7796      7799      7802      7804
      7796      7799      7802      7805      7797      7796      7799      7800
      7797      7796      7799      7801      7797      7796      7799      7802
      7798      7796      7799      7800      7798      7796      7799      7801
      7798      7796      7799      7802      7799      7802      7805      7806
      7799      7802      7805      7807      7799      7802      7805      7808
      7800      7799      7802      7803      7800      7799      7802      7804
      7800      7799      7802      7805      7801      7799      7802      7803
      7801      7799      7802      7804      7801      7799      7802      7805
      7802      7805      7808      7809      7802      7805      7808      7810
      7802      7805      7808      7811      7803      7802      7805      7806
      7803      7802      7805      7807      7803      7802      7805      7808
      7804      7802      7805      7806      7804      7802      7805      7807
      7804      7802      7805      7808      7805      7808      7811      7812
      7805      7808      7811      7813      7805      7808      7811      7814
      7806      7805      7808      7809      7806      7805      7808      7810
      7806      7805      7808      7811      7807      7805      7808      7809
      7807      7805      7808      7810      7807      7805      7808      7811
      7809      7808      7811      7812      7809      7808      7811      7813
      7809      7808      7811      7814      7810      7808      7811      7812
      7810      7808      7811      7813      7810      7808      7811      7814
      7815      7820      7822      7823      7815      7820      7824      7825
      7815      7820      7824      7826      7815      7820      7824      7831
      7816      7815      7818      7819      7816      7815      7820      7821
      7816      7815      7820      7822      7816      7815      7820      7824
      7817      7815      7818      7819      7817      7815      7820      7821
      7817      7815      7820      7822      7817      7815      7820      7824
      7818      7815      7820      7821      7818      7815      7820      7822
      7818      7815      7820      7824      7819      7818      7815      7820
      7820      7824      7831      7827      7821      7820      7822      7823
      7821      7820      7824      7825      7821      7820      7824      7826
      7821      7820      7824      7831      7822      7820      7824      7825
      7822      7820      7824      7826      7822      7820      7824      7831
      7823      7822      7820      7824      7824      7831      7827      7828
      7824      7831      7827      7829      7824      7831      7827      7830
      7825      7824      7831      7827      7826      7824      7831      7827
      7827      7830      7832      7833      7827      7830      7832      7834
      7827      7830      7832      7835      7828      7827      7830      7832
      7829      7827      7830      7832      7830      7832      7835      7836
      7830      7832      7835      7837      7830      7832      7835      7843
      7831      7827      7830      7832      7832      7835      7837      7838
      7832      7835      7843      7844      7832      7835      7843      7845
      7832      7835      7843      7846      7833      7832      7835      7836
      7833      7832      7835      7837      7833      7832      7835      7843
      7834      7832      7835      7836      7834      7832      7835      7837
      7834      7832      7835      7843      7835      7837      7838      7839
      7835      7837      7838      7840      7835      7843      7846      7847
      7836      7835      7837      7838      7836      7835      7843      7844
      7836      7835      7843      7845      7836      7835      7843      7846
      7837      7835      7843      7844      7837      7835      7843      7845
      7837      7835      7843      7846      7837      7838      7840      7841
      7837      7838      7840      7842      7837      7838      7840      7852
      7838      7837      7835      7843      7838      7840      7852      7853
      7838      7840      7852      7854      7838      7840      7852      7855
      7839      7838      7840      7841      7839      7838      7840      7842
      7839      7838      7840      7852      7840      7852      7855      7856
      7840      7852      7855      7857      7840      7852      7855      7858
      7841      7840      7852      7853      7841      7840      7852      7854
      7841      7840      7852      7855      7842      7840      7852      7853
      7842      7840      7852      7854      7842      7840      7852      7855
      7843      7846      7847      7848      7843      7846      7847      7849
      7844      7843      7846      7847      7845      7843      7846      7847
      7846      7847      7849      7850      7846      7847      7849      7851
      7846      7847      7849      7896      7847      7849      7896      7897
      7847      7849      7896      7898      7847      7849      7896      7899
      7848      7847      7849      7850      7848      7847      7849      7851
      7848      7847      7849      7896      7849      7896      7899      7900
      7849      7896      7899      7901      7849      7896      7899      7902
      7850      7849      7896      7897      7850      7849      7896      7898
      7850      7849      7896      7899      7851      7849      7896      7897
      7851      7849      7896      7898      7851      7849      7896      7899
      7852      7855      7858      7859      7852      7855      7858      7860
      7852      7855      7858      7861      7853      7852      7855      7856
      7853      7852      7855      7857      7853      7852      7855      7858
      7854      7852      7855      7856      7854      7852      7855      7857
      7854      7852      7855      7858      7855      7858      7861      7862
      7855      7858      7861      7863      7855      7858      7861      7864
      7856      7855      7858      7859      7856      7855      7858      7860
      7856      7855      7858      7861      7857      7855      7858      7859
      7857      7855      7858      7860      7857      7855      7858      7861
      7858      7861      7864      7865      7858      7861      7864      7866
      7858      7861      7864      7867      7859      7858      7861      7862
      7859      7858      7861      7863      7859      7858      7861      7864
      7860      7858      7861      7862      7860      7858      7861      7863
      7860      7858      7861      7864      7861      7864      7867      7868
      7861      7864      7867      7869      7861      7864      7867      7870
      7862      7861      7864      7865      7862      7861      7864      7866
      7862      7861      7864      7867      7863      7861      7864      7865
      7863      7861      7864      7866      7863      7861      7864      7867
      7864      7867      7870      7871      7864      7867      7870      7872
      7864      7867      7870      7875      7865      7864      7867      7868
      7865      7864      7867      7869      7865      7864      7867      7870
      7866      7864      7867      7868      7866      7864      7867      7869
      7866      7864      7867      7870      7867      7870      7872      7873
      7867      7870      7872      7874      7867      7870      7872      7875
      7867      7870      7875      7872      7867      7870      7875      7876
      7867      7870      7875      7877      7868      7867      7870      7871
      7868      7867      7870      7872      7868      7867      7870      7875
      7869      7867      7870      7871      7869      7867      7870      7872
      7869      7867      7870      7875      7870      7872      7875      7876
      7870      7872      7875      7877      7870      7875      7872      7873
      7870      7875      7872      7874      7870      7875      7877      7878
      7870      7875      7877      7879      7870      7875      7877      7880
      7871      7870      7872      7873      7871      7870      7872      7874
      7871      7870      7872      7875      7871      7870      7875      7872
      7871      7870      7875      7876      7871      7870      7875      7877
      7872      7870      7875      7876      7872      7870      7875      7877
      7872      7875      7877      7878      7872      7875      7877      7879
      7872      7875      7877      7880      7873      7872      7870      7875
      7873      7872      7875      7876      7873      7872      7875      7877
      7874      7872      7870      7875      7874      7872      7875      7876
      7874      7872      7875      7877      7875      7877      7880      7881
      7875      7877      7880      7882      7875      7877      7880      7883
      7876      7875      7877      7878      7876      7875      7877      7879
      7876      7875      7877      7880      7877      7880      7883      7884
      7877      7880      7883      7885      7877      7880      7883      7886
      7878      7877      7880      7881      7878      7877      7880      7882
      7878      7877      7880      7883      7879      7877      7880      7881
      7879      7877      7880      7882      7879      7877      7880      7883
      7880      7883      7886      7887      7880      7883      7886      7888
      7880      7883      7886      7889      7881      7880      7883      7884
      7881      7880      7883      7885      7881      7880      7883      7886
      7882      7880      7883      7884      7882      7880      7883      7885
      7882      7880      7883      7886      7883      7886      7889      7890
      7883      7886      7889      7891      7883      7886      7889      7892
      7884      7883      7886      7887      7884      7883      7886      7888
      7884      7883      7886      7889      7885      7883      7886      7887
      7885      7883      7886      7888      7885      7883      7886      7889
      7886      7889      7892      7893      7886      7889      7892      7894
      7886      7889      7892      7895      7887      7886      7889      7890
      7887      7886      7889      7891      7887      7886      7889      7892
      7888      7886      7889      7890      7888      7886      7889      7891
      7888      7886      7889      7892      7890      7889      7892      7893
      7890      7889      7892      7894      7890      7889      7892      7895
      7891      7889      7892      7893      7891      7889      7892      7894
      7891      7889      7892      7895      7896      7899      7902      7903
      7896      7899      7902      7904      7896      7899      7902      7905
      7897      7896      7899      7900      7897      7896      7899      7901
      7897      7896      7899      7902      7898      7896      7899      7900
      7898      7896      7899      7901      7898      7896      7899      7902
      7899      7902      7905      7906      7899      7902      7905      7907
      7899      7902      7905      7908      7900      7899      7902      7903
      7900      7899      7902      7904      7900      7899      7902      7905
      7901      7899      7902      7903      7901      7899      7902      7904
      7901      7899      7902      7905      7902      7905      7908      7909
      7902      7905      7908      7910      7902      7905      7908      7911
      7903      7902      7905      7906      7903      7902      7905      7907
      7903      7902      7905      7908      7904      7902      7905      7906
      7904      7902      7905      7907      7904      7902      7905      7908
      7905      7908      7911      7912      7905      7908      7911      7913
      7905      7908      7911      7914      7906      7905      7908      7909
      7906      7905      7908      7910      7906      7905      7908      7911
      7907      7905      7908      7909      7907      7905      7908      7910
      7907      7905      7908      7911      7908      7911      7914      7915
      7908      7911      7914      7916      7908      7911      7914      7917
      7909      7908      7911      7912      7909      7908      7911      7913
      7909      7908      7911      7914      7910      7908      7911      7912
      7910      7908      7911      7913      7910      7908      7911      7914
      7911      7914      7917      7918      7911      7914      7917      7919
      7911      7914      7917      7920      7912      7911      7914      7915
      7912      7911      7914      7916      7912      7911      7914      7917
      7913      7911      7914      7915      7913      7911      7914      7916
      7913      7911      7914      7917      7914      7917      7920      7921
      7914      7917      7920      7922      7914      7917      7920      7923
      7915      7914      7917      7918      7915      7914      7917      7919
      7915      7914      7917      7920      7916      7914      7917      7918
      7916      7914      7917      7919      7916      7914      7917      7920
      7917      7920      7923      7924      7917      7920      7923      7925
      7917      7920      7923      7926      7918      7917      7920      7921
      7918      7917      7920      7922      7918      7917      7920      7923
      7919      7917      7920      7921      7919      7917      7920      7922
      7919      7917      7920      7923      7920      7923      7926      7927
      7920      7923      7926      7928      7920      7923      7926      7929
      7921      7920      7923      7924      7921      7920      7923      7925
      7921      7920      7923      7926      7922      7920      7923      7924
      7922      7920      7923      7925      7922      7920      7923      7926
      7923      7926      7929      7930      7923      7926      7929      7931
      7923      7926      7929      7932      7924      7923      7926      7927
      7924      7923      7926      7928      7924      7923      7926      7929
      7925      7923      7926      7927      7925      7923      7926      7928
      7925      7923      7926      7929      7926      7929      7932      7933
      7926      7929      7932      7934      7926      7929      7932      7935
      7927      7926      7929      7930      7927      7926      7929      7931
      7927      7926      7929      7932      7928      7926      7929      7930
      7928      7926      7929      7931      7928      7926      7929      7932
      7929      7932      7935      7936      7929      7932      7935      7937
      7929      7932      7935      7938      7930      7929      7932      7933
      7930      7929      7932      7934      7930      7929      7932      7935
      7931      7929      7932      7933      7931      7929      7932      7934
      7931      7929      7932      7935      7933      7932      7935      7936
      7933      7932      7935      7937      7933      7932      7935      7938
      7934      7932      7935      7936      7934      7932      7935      7937
      7934      7932      7935      7938      7939      7943      7946      7947
      7939      7943      7946      7948      7939      7943      7946      7953
      7940      7939      7943      7944      7940      7939      7943      7945
      7940      7939      7943      7946      7941      7939      7943      7944
      7941      7939      7943      7945      7941      7939      7943      7946
      7942      7939      7943      7944      7942      7939      7943      7945
      7942      7939      7943      7946      7943      7946      7953      7949
      7944      7943      7946      7947      7944      7943      7946      7948
      7944      7943      7946      7953      7945      7943      7946      7947
      7945      7943      7946      7948      7945      7943      7946      7953
      7946      7953      7949      7950      7946      7953      7949      7951
      7946      7953      7949      7952      7947      7946      7953      7949
      7948      7946      7953      7949      7949      7952      7954      7955
      7949      7952      7954      7956      7949      7952      7954      7957
      7950      7949      7952      7954      7951      7949      7952      7954
      7952      7954      7957      7958      7952      7954      7957      7959
      7952      7954      7957      7965      7953      7949      7952      7954
      7954      7957      7959      7960      7954      7957      7965      7966
      7954      7957      7965      7967      7954      7957      7965      7968
      7955      7954      7957      7958      7955      7954      7957      7959
      7955      7954      7957      7965      7956      7954      7957      7958
      7956      7954      7957      7959      7956      7954      7957      7965
      7957      7959      7960      7961      7957      7959      7960      7962
      7957      7965      7968      7969      7958      7957      7959      7960
      7958      7957      7965      7966      7958      7957      7965      7967
      7958      7957      7965      7968      7959      7957      7965      7966
      7959      7957      7965      7967      7959      7957      7965      7968
      7959      7960      7962      7963      7959      7960      7962      7964
      7959      7960      7962      7974      7960      7959      7957      7965
      7960      7962      7974      7975      7960      7962      7974      7976
      7960      7962      7974      7977      7961      7960      7962      7963
      7961      7960      7962      7964      7961      7960      7962      7974
      7962      7974      7977      7978      7962      7974      7977      7979
      7962      7974      7977      7980      7963      7962      7974      7975
      7963      7962      7974      7976      7963      7962      7974      7977
      7964      7962      7974      7975      7964      7962      7974      7976
      7964      7962      7974      7977      7965      7968      7969      7970
      7965      7968      7969      7971      7966      7965      7968      7969
      7967      7965      7968      7969      7968      7969      7971      7972
      7968      7969      7971      7973      7968      7969      7971      8018
      7969      7971      8018      8019      7969      7971      8018      8020
      7969      7971      8018      8021      7970      7969      7971      7972
      7970      7969      7971      7973      7970      7969      7971      8018
      7971      8018      8021      8022      7971      8018      8021      8023
      7971      8018      8021      8024      7972      7971      8018      8019
      7972      7971      8018      8020      7972      7971      8018      8021
      7973      7971      8018      8019      7973      7971      8018      8020
      7973      7971      8018      8021      7974      7977      7980      7981
      7974      7977      7980      7982      7974      7977      7980      7983
      7975      7974      7977      7978      7975      7974      7977      7979
      7975      7974      7977      7980      7976      7974      7977      7978
      7976      7974      7977      7979      7976      7974      7977      7980
      7977      7980      7983      7984      7977      7980      7983      7985
      7977      7980      7983      7986      7978      7977      7980      7981
      7978      7977      7980      7982      7978      7977      7980      7983
      7979      7977      7980      7981      7979      7977      7980      7982
      7979      7977      7980      7983      7980      7983      7986      7987
      7980      7983      7986      7988      7980      7983      7986      7989
      7981      7980      7983      7984      7981      7980      7983      7985
      7981      7980      7983      7986      7982      7980      7983      7984
      7982      7980      7983      7985      7982      7980      7983      7986
      7983      7986      7989      7990      7983      7986      7989      7991
      7983      7986      7989      7992      7984      7983      7986      7987
      7984      7983      7986      7988      7984      7983      7986      7989
      7985      7983      7986      7987      7985      7983      7986      7988
      7985      7983      7986      7989      7986      7989      7992      7993
      7986      7989      7992      7994      7986      7989      7992      7997
      7987      7986      7989      7990      7987      7986      7989      7991
      7987      7986      7989      7992      7988      7986      7989      7990
      7988      7986      7989      7991      7988      7986      7989      7992
      7989      7992      7994      7995      7989      7992      7994      7996
      7989      7992      7994      7997      7989      7992      7997      7994
      7989      7992      7997      7998      7989      7992      7997      7999
      7990      7989      7992      7993      7990      7989      7992      7994
      7990      7989      7992      7997      7991      7989      7992      7993
      7991      7989      7992      7994      7991      7989      7992      7997
      7992      7994      7997      7998      7992      7994      7997      7999
      7992      7997      7994      7995      7992      7997      7994      7996
      7992      7997      7999      8000      7992      7997      7999      8001
      7992      7997      7999      8002      7993      7992      7994      7995
      7993      7992      7994      7996      7993      7992      7994      7997
      7993      7992      7997      7994      7993      7992      7997      7998
      7993      7992      7997      7999      7994      7992      7997      7998
      7994      7992      7997      7999      7994      7997      7999      8000
      7994      7997      7999      8001      7994      7997      7999      8002
      7995      7994      7992      7997      7995      7994      7997      7998
      7995      7994      7997      7999      7996      7994      7992      7997
      7996      7994      7997      7998      7996      7994      7997      7999
      7997      7999      8002      8003      7997      7999      8002      8004
      7997      7999      8002      8005      7998      7997      7999      8000
      7998      7997      7999      8001      7998      7997      7999      8002
      7999      8002      8005      8006      7999      8002      8005      8007
      7999      8002      8005      8008      8000      7999      8002      8003
      8000      7999      8002      8004      8000      7999      8002      8005
      8001      7999      8002      8003      8001      7999      8002      8004
      8001      7999      8002      8005      8002      8005      8008      8009
      8002      8005      8008      8010      8002      8005      8008      8011
      8003      8002      8005      8006      8003      8002      8005      8007
      8003      8002      8005      8008      8004      8002      8005      8006
      8004      8002      8005      8007      8004      8002      8005      8008
      8005      8008      8011      8012      8005      8008      8011      8013
      8005      8008      8011      8014      8006      8005      8008      8009
      8006      8005      8008      8010      8006      8005      8008      8011
      8007      8005      8008      8009      8007      8005      8008      8010
      8007      8005      8008      8011      8008      8011      8014      8015
      8008      8011      8014      8016      8008      8011      8014      8017
      8009      8008      8011      8012      8009      8008      8011      8013
      8009      8008      8011      8014      8010      8008      8011      8012
      8010      8008      8011      8013      8010      8008      8011      8014
      8012      8011      8014      8015      8012      8011      8014      8016
      8012      8011      8014      8017      8013      8011      8014      8015
      8013      8011      8014      8016      8013      8011      8014      8017
      8018      8021      8024      8025      8018      8021      8024      8026
      8018      8021      8024      8027      8019      8018      8021      8022
      8019      8018      8021      8023      8019      8018      8021      8024
      8020      8018      8021      8022      8020      8018      8021      8023
      8020      8018      8021      8024      8021      8024      8027      8028
      8021      8024      8027      8029      8021      8024      8027      8030
      8022      8021      8024      8025      8022      8021      8024      8026
      8022      8021      8024      8027      8023      8021      8024      8025
      8023      8021      8024      8026      8023      8021      8024      8027
      8024      8027      8030      8031      8024      8027      8030      8032
      8024      8027      8030      8033      8025      8024      8027      8028
      8025      8024      8027      8029      8025      8024      8027      8030
      8026      8024      8027      8028      8026      8024      8027      8029
      8026      8024      8027      8030      8027      8030      8033      8034
      8027      8030      8033      8035      8027      8030      8033      8036
      8028      8027      8030      8031      8028      8027      8030      8032
      8028      8027      8030      8033      8029      8027      8030      8031
      8029      8027      8030      8032      8029      8027      8030      8033
      8030      8033      8036      8037      8030      8033      8036      8038
      8030      8033      8036      8039      8031      8030      8033      8034
      8031      8030      8033      8035      8031      8030      8033      8036
      8032      8030      8033      8034      8032      8030      8033      8035
      8032      8030      8033      8036      8033      8036      8039      8040
      8033      8036      8039      8041      8033      8036      8039      8042
      8034      8033      8036      8037      8034      8033      8036      8038
      8034      8033      8036      8039      8035      8033      8036      8037
      8035      8033      8036      8038      8035      8033      8036      8039
      8036      8039      8042      8043      8036      8039      8042      8044
      8036      8039      8042      8045      8037      8036      8039      8040
      8037      8036      8039      8041      8037      8036      8039      8042
      8038      8036      8039      8040      8038      8036      8039      8041
      8038      8036      8039      8042      8039      8042      8045      8046
      8039      8042      8045      8047      8039      8042      8045      8048
      8040      8039      8042      8043      8040      8039      8042      8044
      8040      8039      8042      8045      8041      8039      8042      8043
      8041      8039      8042      8044      8041      8039      8042      8045
      8042      8045      8048      8049      8042      8045      8048      8050
      8042      8045      8048      8051      8043      8042      8045      8046
      8043      8042      8045      8047      8043      8042      8045      8048
      8044      8042      8045      8046      8044      8042      8045      8047
      8044      8042      8045      8048      8045      8048      8051      8052
      8045      8048      8051      8053      8045      8048      8051      8054
      8046      8045      8048      8049      8046      8045      8048      8050
      8046      8045      8048      8051      8047      8045      8048      8049
      8047      8045      8048      8050      8047      8045      8048      8051
      8048      8051      8054      8055      8048      8051      8054      8056
      8048      8051      8054      8057      8049      8048      8051      8052
      8049      8048      8051      8053      8049      8048      8051      8054
      8050      8048      8051      8052      8050      8048      8051      8053
      8050      8048      8051      8054      8052      8051      8054      8055
      8052      8051      8054      8056      8052      8051      8054      8057
      8053      8051      8054      8055      8053      8051      8054      8056
      8053      8051      8054      8057      8058      8062      8065      8066
      8058      8062      8065      8067      8058      8062      8065      8072
      8059      8058      8062      8063      8059      8058      8062      8064
      8059      8058      8062      8065      8060      8058      8062      8063
      8060      8058      8062      8064      8060      8058      8062      8065
      8061      8058      8062      8063      8061      8058      8062      8064
      8061      8058      8062      8065      8062      8065      8072      8068
      8063      8062      8065      8066      8063      8062      8065      8067
      8063      8062      8065      8072      8064      8062      8065      8066
      8064      8062      8065      8067      8064      8062      8065      8072
      8065      8072      8068      8069      8065      8072      8068      8070
      8065      8072      8068      8071      8066      8065      8072      8068
      8067      8065      8072      8068      8068      8071      8073      8074
      8068      8071      8073      8075      8068      8071      8073      8076
      8069      8068      8071      8073      8070      8068      8071      8073
      8071      8073      8076      8077      8071      8073      8076      8078
      8071      8073      8076      8084      8072      8068      8071      8073
      8073      8076      8078      8079      8073      8076      8084      8085
      8073      8076      8084      8086      8073      8076      8084      8087
      8074      8073      8076      8077      8074      8073      8076      8078
      8074      8073      8076      8084      8075      8073      8076      8077
      8075      8073      8076      8078      8075      8073      8076      8084
      8076      8078      8079      8080      8076      8078      8079      8081
      8076      8084      8087      8088      8077      8076      8078      8079
      8077      8076      8084      8085      8077      8076      8084      8086
      8077      8076      8084      8087      8078      8076      8084      8085
      8078      8076      8084      8086      8078      8076      8084      8087
      8078      8079      8081      8082      8078      8079      8081      8083
      8078      8079      8081      8093      8079      8078      8076      8084
      8079      8081      8093      8094      8079      8081      8093      8095
      8079      8081      8093      8096      8080      8079      8081      8082
      8080      8079      8081      8083      8080      8079      8081      8093
      8081      8093      8096      8097      8081      8093      8096      8098
      8081      8093      8096      8099      8082      8081      8093      8094
      8082      8081      8093      8095      8082      8081      8093      8096
      8083      8081      8093      8094      8083      8081      8093      8095
      8083      8081      8093      8096      8084      8087      8088      8089
      8084      8087      8088      8090      8085      8084      8087      8088
      8086      8084      8087      8088      8087      8088      8090      8091
      8087      8088      8090      8092      8087      8088      8090      8134
      8088      8090      8134      8135      8088      8090      8134      8136
      8088      8090      8134      8137      8089      8088      8090      8091
      8089      8088      8090      8092      8089      8088      8090      8134
      8090      8134      8137      8138      8090      8134      8137      8139
      8090      8134      8137      8140      8091      8090      8134      8135
      8091      8090      8134      8136      8091      8090      8134      8137
      8092      8090      8134      8135      8092      8090      8134      8136
      8092      8090      8134      8137      8093      8096      8099      8100
      8093      8096      8099      8101      8093      8096      8099      8102
      8094      8093      8096      8097      8094      8093      8096      8098
      8094      8093      8096      8099      8095      8093      8096      8097
      8095      8093      8096      8098      8095      8093      8096      8099
      8096      8099      8102      8103      8096      8099      8102      8104
      8096      8099      8102      8105      8097      8096      8099      8100
      8097      8096      8099      8101      8097      8096      8099      8102
      8098      8096      8099      8100      8098      8096      8099      8101
      8098      8096      8099      8102      8099      8102      8105      8106
      8099      8102      8105      8107      8099      8102      8105      8108
      8100      8099      8102      8103      8100      8099      8102      8104
      8100      8099      8102      8105      8101      8099      8102      8103
      8101      8099      8102      8104      8101      8099      8102      8105
      8102      8105      8108      8109      8102      8105      8108      8110
      8102      8105      8108      8111      8103      8102      8105      8106
      8103      8102      8105      8107      8103      8102      8105      8108
      8104      8102      8105      8106      8104      8102      8105      8107
      8104      8102      8105      8108      8105      8108      8111      8112
      8105      8108      8111      8113      8106      8105      8108      8109
      8106      8105      8108      8110      8106      8105      8108      8111
      8107      8105      8108      8109      8107      8105      8108      8110
      8107      8105      8108      8111      8108      8111      8113      8114
      8108      8111      8113      8115      8109      8108      8111      8112
      8109      8108      8111      8113      8110      8108      8111      8112
      8110      8108      8111      8113      8111      8113      8115      8116
      8111      8113      8115      8117      8111      8113      8115      8118
      8112      8111      8113      8114      8112      8111      8113      8115
      8113      8115      8118      8119      8113      8115      8118      8120
      8113      8115      8118      8121      8114      8113      8115      8116
      8114      8113      8115      8117      8114      8113      8115      8118
      8115      8118      8121      8122      8115      8118      8121      8123
      8115      8118      8121      8124      8116      8115      8118      8119
      8116      8115      8118      8120      8116      8115      8118      8121
      8117      8115      8118      8119      8117      8115      8118      8120
      8117      8115      8118      8121      8118      8121      8124      8125
      8118      8121      8124      8126      8118      8121      8124      8127
      8119      8118      8121      8122      8119      8118      8121      8123
      8119      8118      8121      8124      8120      8118      8121      8122
      8120      8118      8121      8123      8120      8118      8121      8124
      8121      8124      8127      8128      8121      8124      8127      8129
      8121      8124      8127      8130      8122      8121      8124      8125
      8122      8121      8124      8126      8122      8121      8124      8127
      8123      8121      8124      8125      8123      8121      8124      8126
      8123      8121      8124      8127      8124      8127      8130      8131
      8124      8127      8130      8132      8124      8127      8130      8133
      8125      8124      8127      8128      8125      8124      8127      8129
      8125      8124      8127      8130      8126      8124      8127      8128
      8126      8124      8127      8129      8126      8124      8127      8130
      8128      8127      8130      8131      8128      8127      8130      8132
      8128      8127      8130      8133      8129      8127      8130      8131
      8129      8127      8130      8132      8129      8127      8130      8133
      8134      8137      8140      8141      8134      8137      8140      8142
      8134      8137      8140      8143      8135      8134      8137      8138
      8135      8134      8137      8139      8135      8134      8137      8140
      8136      8134      8137      8138      8136      8134      8137      8139
      8136      8134      8137      8140      8137      8140      8143      8144
      8137      8140      8143      8145      8137      8140      8143      8146
      8138      8137      8140      8141      8138      8137      8140      8142
      8138      8137      8140      8143      8139      8137      8140      8141
      8139      8137      8140      8142      8139      8137      8140      8143
      8140      8143      8146      8147      8140      8143      8146      8148
      8140      8143      8146      8149      8141      8140      8143      8144
      8141      8140      8143      8145      8141      8140      8143      8146
      8142      8140      8143      8144      8142      8140      8143      8145
      8142      8140      8143      8146      8143      8146      8149      8150
      8143      8146      8149      8151      8143      8146      8149      8152
      8144      8143      8146      8147      8144      8143      8146      8148
      8144      8143      8146      8149      8145      8143      8146      8147
      8145      8143      8146      8148      8145      8143      8146      8149
      8146      8149      8152      8153      8146      8149      8152      8154
      8147      8146      8149      8150      8147      8146      8149      8151
      8147      8146      8149      8152      8148      8146      8149      8150
      8148      8146      8149      8151      8148      8146      8149      8152
      8149      8152      8154      8155      8149      8152      8154      8156
      8150      8149      8152      8153      8150      8149      8152      8154
      8151      8149      8152      8153      8151      8149      8152      8154
      8152      8154      8156      8157      8152      8154      8156      8158
      8152      8154      8156      8159      8153      8152      8154      8155
      8153      8152      8154      8156      8154      8156      8159      8160
      8154      8156      8159      8161      8154      8156      8159      8162
      8155      8154      8156      8157      8155      8154      8156      8158
      8155      8154      8156      8159      8156      8159      8162      8163
      8156      8159      8162      8164      8156      8159      8162      8165
      8157      8156      8159      8160      8157      8156      8159      8161
      8157      8156      8159      8162      8158      8156      8159      8160
      8158      8156      8159      8161      8158      8156      8159      8162
      8159      8162      8165      8166      8159      8162      8165      8167
      8159      8162      8165      8168      8160      8159      8162      8163
      8160      8159      8162      8164      8160      8159      8162      8165
      8161      8159      8162      8163      8161      8159      8162      8164
      8161      8159      8162      8165      8162      8165      8168      8169
      8162      8165      8168      8170      8162      8165      8168      8171
      8163      8162      8165      8166      8163      8162      8165      8167
      8163      8162      8165      8168      8164      8162      8165      8166
      8164      8162      8165      8167      8164      8162      8165      8168
      8165      8168      8171      8172      8165      8168      8171      8173
      8165      8168      8171      8174      8166      8165      8168      8169
      8166      8165      8168      8170      8166      8165      8168      8171
      8167      8165      8168      8169      8167      8165      8168      8170
      8167      8165      8168      8171      8168      8171      8174      8175
      8168      8171      8174      8176      8168      8171      8174      8177
      8169      8168      8171      8172      8169      8168      8171      8173
      8169      8168      8171      8174      8170      8168      8171      8172
      8170      8168      8171      8173      8170      8168      8171      8174
      8171      8174      8177      8178      8171      8174      8177      8179
      8171      8174      8177      8180      8172      8171      8174      8175
      8172      8171      8174      8176      8172      8171      8174      8177
      8173      8171      8174      8175      8173      8171      8174      8176
      8173      8171      8174      8177      8175      8174      8177      8178
      8175      8174      8177      8179      8175      8174      8177      8180
      8176      8174      8177      8178      8176      8174      8177      8179
      8176      8174      8177      8180      8181      8185      8188      8189
      8181      8185      8188      8190      8181      8185      8188      8195
      8182      8181      8185      8186      8182      8181      8185      8187
      8182      8181      8185      8188      8183      8181      8185      8186
      8183      8181      8185      8187      8183      8181      8185      8188
      8184      8181      8185      8186      8184      8181      8185      8187
      8184      8181      8185      8188      8185      8188      8195      8191
      8186      8185      8188      8189      8186      8185      8188      8190
      8186      8185      8188      8195      8187      8185      8188      8189
      8187      8185      8188      8190      8187      8185      8188      8195
      8188      8195      8191      8192      8188      8195      8191      8193
      8188      8195      8191      8194      8189      8188      8195      8191
      8190      8188      8195      8191      8191      8194      8196      8197
      8191      8194      8196      8198      8191      8194      8196      8199
      8192      8191      8194      8196      8193      8191      8194      8196
      8194      8196      8199      8200      8194      8196      8199      8201
      8194      8196      8199      8207      8195      8191      8194      8196
      8196      8199      8201      8202      8196      8199      8207      8208
      8196      8199      8207      8209      8196      8199      8207      8210
      8197      8196      8199      8200      8197      8196      8199      8201
      8197      8196      8199      8207      8198      8196      8199      8200
      8198      8196      8199      8201      8198      8196      8199      8207
      8199      8201      8202      8203      8199      8201      8202      8204
      8199      8207      8210      8211      8200      8199      8201      8202
      8200      8199      8207      8208      8200      8199      8207      8209
      8200      8199      8207      8210      8201      8199      8207      8208
      8201      8199      8207      8209      8201      8199      8207      8210
      8201      8202      8204      8205      8201      8202      8204      8206
      8201      8202      8204      8216      8202      8201      8199      8207
      8202      8204      8216      8217      8202      8204      8216      8218
      8202      8204      8216      8219      8203      8202      8204      8205
      8203      8202      8204      8206      8203      8202      8204      8216
      8204      8216      8219      8220      8204      8216      8219      8221
      8204      8216      8219      8222      8205      8204      8216      8217
      8205      8204      8216      8218      8205      8204      8216      8219
      8206      8204      8216      8217      8206      8204      8216      8218
      8206      8204      8216      8219      8207      8210      8211      8212
      8207      8210      8211      8213      8208      8207      8210      8211
      8209      8207      8210      8211      8210      8211      8213      8214
      8210      8211      8213      8215      8210      8211      8213      8260
      8211      8213      8260      8261      8211      8213      8260      8262
      8211      8213      8260      8263      8212      8211      8213      8214
      8212      8211      8213      8215      8212      8211      8213      8260
      8213      8260      8263      8264      8213      8260      8263      8265
      8213      8260      8263      8266      8214      8213      8260      8261
      8214      8213      8260      8262      8214      8213      8260      8263
      8215      8213      8260      8261      8215      8213      8260      8262
      8215      8213      8260      8263      8216      8219      8222      8223
      8216      8219      8222      8224      8216      8219      8222      8225
      8217      8216      8219      8220      8217      8216      8219      8221
      8217      8216      8219      8222      8218      8216      8219      8220
      8218      8216      8219      8221      8218      8216      8219      8222
      8219      8222      8225      8226      8219      8222      8225      8227
      8219      8222      8225      8228      8220      8219      8222      8223
      8220      8219      8222      8224      8220      8219      8222      8225
      8221      8219      8222      8223      8221      8219      8222      8224
      8221      8219      8222      8225      8222      8225      8228      8229
      8222      8225      8228      8230      8222      8225      8228      8231
      8223      8222      8225      8226      8223      8222      8225      8227
      8223      8222      8225      8228      8224      8222      8225      8226
      8224      8222      8225      8227      8224      8222      8225      8228
      8225      8228      8231      8232      8225      8228      8231      8233
      8225      8228      8231      8234      8226      8225      8228      8229
      8226      8225      8228      8230      8226      8225      8228      8231
      8227      8225      8228      8229      8227      8225      8228      8230
      8227      8225      8228      8231      8228      8231      8234      8235
      8228      8231      8234      8236      8228      8231      8234      8239
      8229      8228      8231      8232      8229      8228      8231      8233
      8229      8228      8231      8234      8230      8228      8231      8232
      8230      8228      8231      8233      8230      8228      8231      8234
      8231      8234      8236      8237      8231      8234      8236      8238
      8231      8234      8236      8239      8231      8234      8239      8236
      8231      8234      8239      8240      8231      8234      8239      8241
      8232      8231      8234      8235      8232      8231      8234      8236
      8232      8231      8234      8239      8233      8231      8234      8235
      8233      8231      8234      8236      8233      8231      8234      8239
      8234      8236      8239      8240      8234      8236      8239      8241
      8234      8239      8236      8237      8234      8239      8236      8238
      8234      8239      8241      8242      8234      8239      8241      8243
      8234      8239      8241      8244      8235      8234      8236      8237
      8235      8234      8236      8238      8235      8234      8236      8239
      8235      8234      8239      8236      8235      8234      8239      8240
      8235      8234      8239      8241      8236      8234      8239      8240
      8236      8234      8239      8241      8236      8239      8241      8242
      8236      8239      8241      8243      8236      8239      8241      8244
      8237      8236      8234      8239      8237      8236      8239      8240
      8237      8236      8239      8241      8238      8236      8234      8239
      8238      8236      8239      8240      8238      8236      8239      8241
      8239      8241      8244      8245      8239      8241      8244      8246
      8239      8241      8244      8247      8240      8239      8241      8242
      8240      8239      8241      8243      8240      8239      8241      8244
      8241      8244      8247      8248      8241      8244      8247      8249
      8241      8244      8247      8250      8242      8241      8244      8245
      8242      8241      8244      8246      8242      8241      8244      8247
      8243      8241      8244      8245      8243      8241      8244      8246
      8243      8241      8244      8247      8244      8247      8250      8251
      8244      8247      8250      8252      8244      8247      8250      8253
      8245      8244      8247      8248      8245      8244      8247      8249
      8245      8244      8247      8250      8246      8244      8247      8248
      8246      8244      8247      8249      8246      8244      8247      8250
      8247      8250      8253      8254      8247      8250      8253      8255
      8247      8250      8253      8256      8248      8247      8250      8251
      8248      8247      8250      8252      8248      8247      8250      8253
      8249      8247      8250      8251      8249      8247      8250      8252
      8249      8247      8250      8253      8250      8253      8256      8257
      8250      8253      8256      8258      8250      8253      8256      8259
      8251      8250      8253      8254      8251      8250      8253      8255
      8251      8250      8253      8256      8252      8250      8253      8254
      8252      8250      8253      8255      8252      8250      8253      8256
      8254      8253      8256      8257      8254      8253      8256      8258
      8254      8253      8256      8259      8255      8253      8256      8257
      8255      8253      8256      8258      8255      8253      8256      8259
      8260      8263      8266      8267      8260      8263      8266      8268
      8260      8263      8266      8269      8261      8260      8263      8264
      8261      8260      8263      8265      8261      8260      8263      8266
      8262      8260      8263      8264      8262      8260      8263      8265
      8262      8260      8263      8266      8263      8266      8269      8270
      8263      8266      8269      8271      8263      8266      8269      8272
      8264      8263      8266      8267      8264      8263      8266      8268
      8264      8263      8266      8269      8265      8263      8266      8267
      8265      8263      8266      8268      8265      8263      8266      8269
      8266      8269      8272      8273      8266      8269      8272      8274
      8266      8269      8272      8275      8267      8266      8269      8270
      8267      8266      8269      8271      8267      8266      8269      8272
      8268      8266      8269      8270      8268      8266      8269      8271
      8268      8266      8269      8272      8269      8272      8275      8276
      8269      8272      8275      8277      8269      8272      8275      8278
      8270      8269      8272      8273      8270      8269      8272      8274
      8270      8269      8272      8275      8271      8269      8272      8273
      8271      8269      8272      8274      8271      8269      8272      8275
      8272      8275      8278      8279      8272      8275      8278      8280
      8272      8275      8278      8281      8273      8272      8275      8276
      8273      8272      8275      8277      8273      8272      8275      8278
      8274      8272      8275      8276      8274      8272      8275      8277
      8274      8272      8275      8278      8275      8278      8281      8282
      8275      8278      8281      8283      8275      8278      8281      8284
      8276      8275      8278      8279      8276      8275      8278      8280
      8276      8275      8278      8281      8277      8275      8278      8279
      8277      8275      8278      8280      8277      8275      8278      8281
      8278      8281      8284      8285      8278      8281      8284      8286
      8278      8281      8284      8287      8279      8278      8281      8282
      8279      8278      8281      8283      8279      8278      8281      8284
      8280      8278      8281      8282      8280      8278      8281      8283
      8280      8278      8281      8284      8281      8284      8287      8288
      8281      8284      8287      8289      8281      8284      8287      8290
      8282      8281      8284      8285      8282      8281      8284      8286
      8282      8281      8284      8287      8283      8281      8284      8285
      8283      8281      8284      8286      8283      8281      8284      8287
      8284      8287      8290      8291      8284      8287      8290      8292
      8284      8287      8290      8293      8285      8284      8287      8288
      8285      8284      8287      8289      8285      8284      8287      8290
      8286      8284      8287      8288      8286      8284      8287      8289
      8286      8284      8287      8290      8287      8290      8293      8294
      8287      8290      8293      8295      8287      8290      8293      8296
      8288      8287      8290      8291      8288      8287      8290      8292
      8288      8287      8290      8293      8289      8287      8290      8291
      8289      8287      8290      8292      8289      8287      8290      8293
      8290      8293      8296      8297      8290      8293      8296      8298
      8290      8293      8296      8299      8291      8290      8293      8294
      8291      8290      8293      8295      8291      8290      8293      8296
      8292      8290      8293      8294      8292      8290      8293      8295
      8292      8290      8293      8296      8293      8296      8299      8300
      8293      8296      8299      8301      8293      8296      8299      8302
      8294      8293      8296      8297      8294      8293      8296      8298
      8294      8293      8296      8299      8295      8293      8296      8297
      8295      8293      8296      8298      8295      8293      8296      8299
      8297      8296      8299      8300      8297      8296      8299      8301
      8297      8296      8299      8302      8298      8296      8299      8300
      8298      8296      8299      8301      8298      8296      8299      8302
      8303      8307      8310      8311      8303      8307      8310      8312
      8303      8307      8310      8317      8304      8303      8307      8308
      8304      8303      8307      8309      8304      8303      8307      8310
      8305      8303      8307      8308      8305      8303      8307      8309
      8305      8303      8307      8310      8306      8303      8307      8308
      8306      8303      8307      8309      8306      8303      8307      8310
      8307      8310      8317      8313      8308      8307      8310      8311
      8308      8307      8310      8312      8308      8307      8310      8317
      8309      8307      8310      8311      8309      8307      8310      8312
      8309      8307      8310      8317      8310      8317      8313      8314
      8310      8317      8313      8315      8310      8317      8313      8316
      8311      8310      8317      8313      8312      8310      8317      8313
      8313      8316      8318      8319      8313      8316      8318      8320
      8313      8316      8318      8321      8314      8313      8316      8318
      8315      8313      8316      8318      8316      8318      8321      8322
      8316      8318      8321      8323      8316      8318      8321      8329
      8317      8313      8316      8318      8318      8321      8323      8324
      8318      8321      8329      8330      8318      8321      8329      8331
      8318      8321      8329      8332      8319      8318      8321      8322
      8319      8318      8321      8323      8319      8318      8321      8329
      8320      8318      8321      8322      8320      8318      8321      8323
      8320      8318      8321      8329      8321      8323      8324      8325
      8321      8323      8324      8326      8321      8329      8332      8333
      8322      8321      8323      8324      8322      8321      8329      8330
      8322      8321      8329      8331      8322      8321      8329      8332
      8323      8321      8329      8330      8323      8321      8329      8331
      8323      8321      8329      8332      8323      8324      8326      8327
      8323      8324      8326      8328      8323      8324      8326      8338
      8324      8323      8321      8329      8324      8326      8338      8339
      8324      8326      8338      8340      8324      8326      8338      8341
      8325      8324      8326      8327      8325      8324      8326      8328
      8325      8324      8326      8338      8326      8338      8341      8342
      8326      8338      8341      8343      8326      8338      8341      8344
      8327      8326      8338      8339      8327      8326      8338      8340
      8327      8326      8338      8341      8328      8326      8338      8339
      8328      8326      8338      8340      8328      8326      8338      8341
      8329      8332      8333      8334      8329      8332      8333      8335
      8330      8329      8332      8333      8331      8329      8332      8333
      8332      8333      8335      8336      8332      8333      8335      8337
      8332      8333      8335      8385      8333      8335      8385      8386
      8333      8335      8385      8387      8333      8335      8385      8388
      8334      8333      8335      8336      8334      8333      8335      8337
      8334      8333      8335      8385      8335      8385      8388      8389
      8335      8385      8388      8390      8335      8385      8388      8391
      8336      8335      8385      8386      8336      8335      8385      8387
      8336      8335      8385      8388      8337      8335      8385      8386
      8337      8335      8385      8387      8337      8335      8385      8388
      8338      8341      8344      8345      8338      8341      8344      8346
      8338      8341      8344      8347      8339      8338      8341      8342
      8339      8338      8341      8343      8339      8338      8341      8344
      8340      8338      8341      8342      8340      8338      8341      8343
      8340      8338      8341      8344      8341      8344      8347      8348
      8341      8344      8347      8349      8341      8344      8347      8350
      8342      8341      8344      8345      8342      8341      8344      8346
      8342      8341      8344      8347      8343      8341      8344      8345
      8343      8341      8344      8346      8343      8341      8344      8347
      8344      8347      8350      8351      8344      8347      8350      8352
      8344      8347      8350      8353      8345      8344      8347      8348
      8345      8344      8347      8349      8345      8344      8347      8350
      8346      8344      8347      8348      8346      8344      8347      8349
      8346      8344      8347      8350      8347      8350      8353      8354
      8347      8350      8353      8355      8347      8350      8353      8356
      8348      8347      8350      8351      8348      8347      8350      8352
      8348      8347      8350      8353      8349      8347      8350      8351
      8349      8347      8350      8352      8349      8347      8350      8353
      8350      8353      8356      8357      8350      8353      8356      8358
      8351      8350      8353      8354      8351      8350      8353      8355
      8351      8350      8353      8356      8352      8350      8353      8354
      8352      8350      8353      8355      8352      8350      8353      8356
      8353      8356      8358      8359      8353      8356      8358      8360
      8354      8353      8356      8357      8354      8353      8356      8358
      8355      8353      8356      8357      8355      8353      8356      8358
      8356      8358      8360      8361      8356      8358      8360      8362
      8356      8358      8360      8363      8357      8356      8358      8359
      8357      8356      8358      8360      8358      8360      8363      8364
      8358      8360      8363      8365      8358      8360      8363      8366
      8359      8358      8360      8361      8359      8358      8360      8362
      8359      8358      8360      8363      8360      8363      8366      8367
      8360      8363      8366      8368      8360      8363      8366      8369
      8361      8360      8363      8364      8361      8360      8363      8365
      8361      8360      8363      8366      8362      8360      8363      8364
      8362      8360      8363      8365      8362      8360      8363      8366
      8363      8366      8369      8370      8363      8366      8369      8371
      8363      8366      8369      8372      8364      8363      8366      8367
      8364      8363      8366      8368      8364      8363      8366      8369
      8365      8363      8366      8367      8365      8363      8366      8368
      8365      8363      8366      8369      8366      8369      8372      8373
      8366      8369      8372      8374      8366      8369      8372      8375
      8367      8366      8369      8370      8367      8366      8369      8371
      8367      8366      8369      8372      8368      8366      8369      8370
      8368      8366      8369      8371      8368      8366      8369      8372
      8369      8372      8375      8376      8369      8372      8375      8377
      8369      8372      8375      8378      8370      8369      8372      8373
      8370      8369      8372      8374      8370      8369      8372      8375
      8371      8369      8372      8373      8371      8369      8372      8374
      8371      8369      8372      8375      8372      8375      8378      8379
      8372      8375      8378      8380      8372      8375      8378      8381
      8373      8372      8375      8376      8373      8372      8375      8377
      8373      8372      8375      8378      8374      8372      8375      8376
      8374      8372      8375      8377      8374      8372      8375      8378
      8375      8378      8381      8382      8375      8378      8381      8383
      8375      8378      8381      8384      8376      8375      8378      8379
      8376      8375      8378      8380      8376      8375      8378      8381
      8377      8375      8378      8379      8377      8375      8378      8380
      8377      8375      8378      8381      8379      8378      8381      8382
      8379      8378      8381      8383      8379      8378      8381      8384
      8380      8378      8381      8382      8380      8378      8381      8383
      8380      8378      8381      8384      8385      8388      8391      8392
      8385      8388      8391      8393      8385      8388      8391      8394
      8386      8385      8388      8389      8386      8385      8388      8390
      8386      8385      8388      8391      8387      8385      8388      8389
      8387      8385      8388      8390      8387      8385      8388      8391
      8388      8391      8394      8395      8388      8391      8394      8396
      8388      8391      8394      8397      8389      8388      8391      8392
      8389      8388      8391      8393      8389      8388      8391      8394
      8390      8388      8391      8392      8390      8388      8391      8393
      8390      8388      8391      8394      8391      8394      8397      8398
      8391      8394      8397      8399      8391      8394      8397      8400
      8392      8391      8394      8395      8392      8391      8394      8396
      8392      8391      8394      8397      8393      8391      8394      8395
      8393      8391      8394      8396      8393      8391      8394      8397
      8394      8397      8400      8401      8394      8397      8400      8402
      8394      8397      8400      8403      8395      8394      8397      8398
      8395      8394      8397      8399      8395      8394      8397      8400
      8396      8394      8397      8398      8396      8394      8397      8399
      8396      8394      8397      8400      8397      8400      8403      8404
      8397      8400      8403      8405      8397      8400      8403      8406
      8398      8397      8400      8401      8398      8397      8400      8402
      8398      8397      8400      8403      8399      8397      8400      8401
      8399      8397      8400      8402      8399      8397      8400      8403
      8400      8403      8406      8407      8400      8403      8406      8408
      8400      8403      8406      8409      8401      8400      8403      8404
      8401      8400      8403      8405      8401      8400      8403      8406
      8402      8400      8403      8404      8402      8400      8403      8405
      8402      8400      8403      8406      8403      8406      8409      8410
      8403      8406      8409      8411      8403      8406      8409      8412
      8404      8403      8406      8407      8404      8403      8406      8408
      8404      8403      8406      8409      8405      8403      8406      8407
      8405      8403      8406      8408      8405      8403      8406      8409
      8406      8409      8412      8413      8406      8409      8412      8414
      8406      8409      8412      8415      8407      8406      8409      8410
      8407      8406      8409      8411      8407      8406      8409      8412
      8408      8406      8409      8410      8408      8406      8409      8411
      8408      8406      8409      8412      8409      8412      8415      8416
      8409      8412      8415      8417      8409      8412      8415      8418
      8410      8409      8412      8413      8410      8409      8412      8414
      8410      8409      8412      8415      8411      8409      8412      8413
      8411      8409      8412      8414      8411      8409      8412      8415
      8412      8415      8418      8419      8412      8415      8418      8420
      8412      8415      8418      8421      8413      8412      8415      8416
      8413      8412      8415      8417      8413      8412      8415      8418
      8414      8412      8415      8416      8414      8412      8415      8417
      8414      8412      8415      8418      8415      8418      8421      8422
      8415      8418      8421      8423      8415      8418      8421      8424
      8416      8415      8418      8419      8416      8415      8418      8420
      8416      8415      8418      8421      8417      8415      8418      8419
      8417      8415      8418      8420      8417      8415      8418      8421
      8418      8421      8424      8425      8418      8421      8424      8426
      8418      8421      8424      8427      8419      8418      8421      8422
      8419      8418      8421      8423      8419      8418      8421      8424
      8420      8418      8421      8422      8420      8418      8421      8423
      8420      8418      8421      8424      8422      8421      8424      8425
      8422      8421      8424      8426      8422      8421      8424      8427
      8423      8421      8424      8425      8423      8421      8424      8426
      8423      8421      8424      8427      8428      8432      8435      8436
      8428      8432      8435      8437      8428      8432      8435      8442
      8429      8428      8432      8433      8429      8428      8432      8434
      8429      8428      8432      8435      8430      8428      8432      8433
      8430      8428      8432      8434      8430      8428      8432      8435
      8431      8428      8432      8433      8431      8428      8432      8434
      8431      8428      8432      8435      8432      8435      8442      8438
      8433      8432      8435      8436      8433      8432      8435      8437
      8433      8432      8435      8442      8434      8432      8435      8436
      8434      8432      8435      8437      8434      8432      8435      8442
      8435      8442      8438      8439      8435      8442      8438      8440
      8435      8442      8438      8441      8436      8435      8442      8438
      8437      8435      8442      8438      8438      8441      8443      8444
      8438      8441      8443      8445      8438      8441      8443      8446
      8439      8438      8441      8443      8440      8438      8441      8443
      8441      8443      8446      8447      8441      8443      8446      8448
      8441      8443      8446      8454      8442      8438      8441      8443
      8443      8446      8448      8449      8443      8446      8454      8455
      8443      8446      8454      8456      8443      8446      8454      8457
      8444      8443      8446      8447      8444      8443      8446      8448
      8444      8443      8446      8454      8445      8443      8446      8447
      8445      8443      8446      8448      8445      8443      8446      8454
      8446      8448      8449      8450      8446      8448      8449      8451
      8446      8454      8457      8458      8447      8446      8448      8449
      8447      8446      8454      8455      8447      8446      8454      8456
      8447      8446      8454      8457      8448      8446      8454      8455
      8448      8446      8454      8456      8448      8446      8454      8457
      8448      8449      8451      8452      8448      8449      8451      8453
      8448      8449      8451      8463      8449      8448      8446      8454
      8449      8451      8463      8464      8449      8451      8463      8465
      8449      8451      8463      8466      8450      8449      8451      8452
      8450      8449      8451      8453      8450      8449      8451      8463
      8451      8463      8466      8467      8451      8463      8466      8468
      8451      8463      8466      8469      8452      8451      8463      8464
      8452      8451      8463      8465      8452      8451      8463      8466
      8453      8451      8463      8464      8453      8451      8463      8465
      8453      8451      8463      8466      8454      8457      8458      8459
      8454      8457      8458      8460      8455      8454      8457      8458
      8456      8454      8457      8458      8457      8458      8460      8461
      8457      8458      8460      8462      8457      8458      8460      8507
      8458      8460      8507      8508      8458      8460      8507      8509
      8458      8460      8507      8510      8459      8458      8460      8461
      8459      8458      8460      8462      8459      8458      8460      8507
      8460      8507      8510      8511      8460      8507      8510      8512
      8460      8507      8510      8513      8461      8460      8507      8508
      8461      8460      8507      8509      8461      8460      8507      8510
      8462      8460      8507      8508      8462      8460      8507      8509
      8462      8460      8507      8510      8463      8466      8469      8470
      8463      8466      8469      8471      8463      8466      8469      8472
      8464      8463      8466      8467      8464      8463      8466      8468
      8464      8463      8466      8469      8465      8463      8466      8467
      8465      8463      8466      8468      8465      8463      8466      8469
      8466      8469      8472      8473      8466      8469      8472      8474
      8466      8469      8472      8475      8467      8466      8469      8470
      8467      8466      8469      8471      8467      8466      8469      8472
      8468      8466      8469      8470      8468      8466      8469      8471
      8468      8466      8469      8472      8469      8472      8475      8476
      8469      8472      8475      8477      8469      8472      8475      8478
      8470      8469      8472      8473      8470      8469      8472      8474
      8470      8469      8472      8475      8471      8469      8472      8473
      8471      8469      8472      8474      8471      8469      8472      8475
      8472      8475      8478      8479      8472      8475      8478      8480
      8472      8475      8478      8481      8473      8472      8475      8476
      8473      8472      8475      8477      8473      8472      8475      8478
      8474      8472      8475      8476      8474      8472      8475      8477
      8474      8472      8475      8478      8475      8478      8481      8482
      8475      8478      8481      8483      8475      8478      8481      8486
      8476      8475      8478      8479      8476      8475      8478      8480
      8476      8475      8478      8481      8477      8475      8478      8479
      8477      8475      8478      8480      8477      8475      8478      8481
      8478      8481      8483      8484      8478      8481      8483      8485
      8478      8481      8483      8486      8478      8481      8486      8483
      8478      8481      8486      8487      8478      8481      8486      8488
      8479      8478      8481      8482      8479      8478      8481      8483
      8479      8478      8481      8486      8480      8478      8481      8482
      8480      8478      8481      8483      8480      8478      8481      8486
      8481      8483      8486      8487      8481      8483      8486      8488
      8481      8486      8483      8484      8481      8486      8483      8485
      8481      8486      8488      8489      8481      8486      8488      8490
      8481      8486      8488      8491      8482      8481      8483      8484
      8482      8481      8483      8485      8482      8481      8483      8486
      8482      8481      8486      8483      8482      8481      8486      8487
      8482      8481      8486      8488      8483      8481      8486      8487
      8483      8481      8486      8488      8483      8486      8488      8489
      8483      8486      8488      8490      8483      8486      8488      8491
      8484      8483      8481      8486      8484      8483      8486      8487
      8484      8483      8486      8488      8485      8483      8481      8486
      8485      8483      8486      8487      8485      8483      8486      8488
      8486      8488      8491      8492      8486      8488      8491      8493
      8486      8488      8491      8494      8487      8486      8488      8489
      8487      8486      8488      8490      8487      8486      8488      8491
      8488      8491      8494      8495      8488      8491      8494      8496
      8488      8491      8494      8497      8489      8488      8491      8492
      8489      8488      8491      8493      8489      8488      8491      8494
      8490      8488      8491      8492      8490      8488      8491      8493
      8490      8488      8491      8494      8491      8494      8497      8498
      8491      8494      8497      8499      8491      8494      8497      8500
      8492      8491      8494      8495      8492      8491      8494      8496
      8492      8491      8494      8497      8493      8491      8494      8495
      8493      8491      8494      8496      8493      8491      8494      8497
      8494      8497      8500      8501      8494      8497      8500      8502
      8494      8497      8500      8503      8495      8494      8497      8498
      8495      8494      8497      8499      8495      8494      8497      8500
      8496      8494      8497      8498      8496      8494      8497      8499
      8496      8494      8497      8500      8497      8500      8503      8504
      8497      8500      8503      8505      8497      8500      8503      8506
      8498      8497      8500      8501      8498      8497      8500      8502
      8498      8497      8500      8503      8499      8497      8500      8501
      8499      8497      8500      8502      8499      8497      8500      8503
      8501      8500      8503      8504      8501      8500      8503      8505
      8501      8500      8503      8506      8502      8500      8503      8504
      8502      8500      8503      8505      8502      8500      8503      8506
      8507      8510      8513      8514      8507      8510      8513      8515
      8507      8510      8513      8516      8508      8507      8510      8511
      8508      8507      8510      8512      8508      8507      8510      8513
      8509      8507      8510      8511      8509      8507      8510      8512
      8509      8507      8510      8513      8510      8513      8516      8517
      8510      8513      8516      8518      8510      8513      8516      8519
      8511      8510      8513      8514      8511      8510      8513      8515
      8511      8510      8513      8516      8512      8510      8513      8514
      8512      8510      8513      8515      8512      8510      8513      8516
      8513      8516      8519      8520      8513      8516      8519      8521
      8513      8516      8519      8522      8514      8513      8516      8517
      8514      8513      8516      8518      8514      8513      8516      8519
      8515      8513      8516      8517      8515      8513      8516      8518
      8515      8513      8516      8519      8516      8519      8522      8523
      8516      8519      8522      8524      8516      8519      8522      8525
      8517      8516      8519      8520      8517      8516      8519      8521
      8517      8516      8519      8522      8518      8516      8519      8520
      8518      8516      8519      8521      8518      8516      8519      8522
      8519      8522      8525      8526      8519      8522      8525      8527
      8519      8522      8525      8528      8520      8519      8522      8523
      8520      8519      8522      8524      8520      8519      8522      8525
      8521      8519      8522      8523      8521      8519      8522      8524
      8521      8519      8522      8525      8522      8525      8528      8529
      8522      8525      8528      8530      8522      8525      8528      8531
      8523      8522      8525      8526      8523      8522      8525      8527
      8523      8522      8525      8528      8524      8522      8525      8526
      8524      8522      8525      8527      8524      8522      8525      8528
      8525      8528      8531      8532      8525      8528      8531      8533
      8525      8528      8531      8534      8526      8525      8528      8529
      8526      8525      8528      8530      8526      8525      8528      8531
      8527      8525      8528      8529      8527      8525      8528      8530
      8527      8525      8528      8531      8528      8531      8534      8535
      8528      8531      8534      8536      8528      8531      8534      8537
      8529      8528      8531      8532      8529      8528      8531      8533
      8529      8528      8531      8534      8530      8528      8531      8532
      8530      8528      8531      8533      8530      8528      8531      8534
      8531      8534      8537      8538      8531      8534      8537      8539
      8531      8534      8537      8540      8532      8531      8534      8535
      8532      8531      8534      8536      8532      8531      8534      8537
      8533      8531      8534      8535      8533      8531      8534      8536
      8533      8531      8534      8537      8534      8537      8540      8541
      8534      8537      8540      8542      8534      8537      8540      8543
      8535      8534      8537      8538      8535      8534      8537      8539
      8535      8534      8537      8540      8536      8534      8537      8538
      8536      8534      8537      8539      8536      8534      8537      8540
      8537      8540      8543      8544      8537      8540      8543      8545
      8537      8540      8543      8546      8538      8537      8540      8541
      8538      8537      8540      8542      8538      8537      8540      8543
      8539      8537      8540      8541      8539      8537      8540      8542
      8539      8537      8540      8543      8540      8543      8546      8547
      8540      8543      8546      8548      8540      8543      8546      8549
      8541      8540      8543      8544      8541      8540      8543      8545
      8541      8540      8543      8546      8542      8540      8543      8544
      8542      8540      8543      8545      8542      8540      8543      8546
      8544      8543      8546      8547      8544      8543      8546      8548
      8544      8543      8546      8549      8545      8543      8546      8547
      8545      8543      8546      8548      8545      8543      8546      8549
      8550      8555      8557      8558      8550      8555      8559      8560
      8550      8555      8559      8561      8550      8555      8559      8566
      8551      8550      8553      8554      8551      8550      8555      8556
      8551      8550      8555      8557      8551      8550      8555      8559
      8552      8550      8553      8554      8552      8550      8555      8556
      8552      8550      8555      8557      8552      8550      8555      8559
      8553      8550      8555      8556      8553      8550      8555      8557
      8553      8550      8555      8559      8554      8553      8550      8555
      8555      8559      8566      8562      8556      8555      8557      8558
      8556      8555      8559      8560      8556      8555      8559      8561
      8556      8555      8559      8566      8557      8555      8559      8560
      8557      8555      8559      8561      8557      8555      8559      8566
      8558      8557      8555      8559      8559      8566      8562      8563
      8559      8566      8562      8564      8559      8566      8562      8565
      8560      8559      8566      8562      8561      8559      8566      8562
      8562      8565      8567      8568      8562      8565      8567      8569
      8562      8565      8567      8570      8563      8562      8565      8567
      8564      8562      8565      8567      8565      8567      8570      8571
      8565      8567      8570      8572      8565      8567      8570      8578
      8566      8562      8565      8567      8567      8570      8572      8573
      8567      8570      8578      8579      8567      8570      8578      8580
      8567      8570      8578      8581      8568      8567      8570      8571
      8568      8567      8570      8572      8568      8567      8570      8578
      8569      8567      8570      8571      8569      8567      8570      8572
      8569      8567      8570      8578      8570      8572      8573      8574
      8570      8572      8573      8575      8570      8578      8581      8582
      8571      8570      8572      8573      8571      8570      8578      8579
      8571      8570      8578      8580      8571      8570      8578      8581
      8572      8570      8578      8579      8572      8570      8578      8580
      8572      8570      8578      8581      8572      8573      8575      8576
      8572      8573      8575      8577      8572      8573      8575      8587
      8573      8572      8570      8578      8573      8575      8587      8588
      8573      8575      8587      8589      8573      8575      8587      8590
      8574      8573      8575      8576      8574      8573      8575      8577
      8574      8573      8575      8587      8575      8587      8590      8591
      8575      8587      8590      8592      8575      8587      8590      8593
      8576      8575      8587      8588      8576      8575      8587      8589
      8576      8575      8587      8590      8577      8575      8587      8588
      8577      8575      8587      8589      8577      8575      8587      8590
      8578      8581      8582      8583      8578      8581      8582      8584
      8579      8578      8581      8582      8580      8578      8581      8582
      8581      8582      8584      8585      8581      8582      8584      8586
      8581      8582      8584      8631      8582      8584      8631      8632
      8582      8584      8631      8633      8582      8584      8631      8634
      8583      8582      8584      8585      8583      8582      8584      8586
      8583      8582      8584      8631      8584      8631      8634      8635
      8584      8631      8634      8636      8584      8631      8634      8637
      8585      8584      8631      8632      8585      8584      8631      8633
      8585      8584      8631      8634      8586      8584      8631      8632
      8586      8584      8631      8633      8586      8584      8631      8634
      8587      8590      8593      8594      8587      8590      8593      8595
      8587      8590      8593      8596      8588      8587      8590      8591
      8588      8587      8590      8592      8588      8587      8590      8593
      8589      8587      8590      8591      8589      8587      8590      8592
      8589      8587      8590      8593      8590      8593      8596      8597
      8590      8593      8596      8598      8590      8593      8596      8599
      8591      8590      8593      8594      8591      8590      8593      8595
      8591      8590      8593      8596      8592      8590      8593      8594
      8592      8590      8593      8595      8592      8590      8593      8596
      8593      8596      8599      8600      8593      8596      8599      8601
      8593      8596      8599      8602      8594      8593      8596      8597
      8594      8593      8596      8598      8594      8593      8596      8599
      8595      8593      8596      8597      8595      8593      8596      8598
      8595      8593      8596      8599      8596      8599      8602      8603
      8596      8599      8602      8604      8596      8599      8602      8605
      8597      8596      8599      8600      8597      8596      8599      8601
      8597      8596      8599      8602      8598      8596      8599      8600
      8598      8596      8599      8601      8598      8596      8599      8602
      8599      8602      8605      8606      8599      8602      8605      8607
      8599      8602      8605      8610      8600      8599      8602      8603
      8600      8599      8602      8604      8600      8599      8602      8605
      8601      8599      8602      8603      8601      8599      8602      8604
      8601      8599      8602      8605      8602      8605      8607      8608
      8602      8605      8607      8609      8602      8605      8607      8610
      8602      8605      8610      8607      8602      8605      8610      8611
      8602      8605      8610      8612      8603      8602      8605      8606
      8603      8602      8605      8607      8603      8602      8605      8610
      8604      8602      8605      8606      8604      8602      8605      8607
      8604      8602      8605      8610      8605      8607      8610      8611
      8605      8607      8610      8612      8605      8610      8607      8608
      8605      8610      8607      8609      8605      8610      8612      8613
      8605      8610      8612      8614      8605      8610      8612      8615
      8606      8605      8607      8608      8606      8605      8607      8609
      8606      8605      8607      8610      8606      8605      8610      8607
      8606      8605      8610      8611      8606      8605      8610      8612
      8607      8605      8610      8611      8607      8605      8610      8612
      8607      8610      8612      8613      8607      8610      8612      8614
      8607      8610      8612      8615      8608      8607      8605      8610
      8608      8607      8610      8611      8608      8607      8610      8612
      8609      8607      8605      8610      8609      8607      8610      8611
      8609      8607      8610      8612      8610      8612      8615      8616
      8610      8612      8615      8617      8610      8612      8615      8618
      8611      8610      8612      8613      8611      8610      8612      8614
      8611      8610      8612      8615      8612      8615      8618      8619
      8612      8615      8618      8620      8612      8615      8618      8621
      8613      8612      8615      8616      8613      8612      8615      8617
      8613      8612      8615      8618      8614      8612      8615      8616
      8614      8612      8615      8617      8614      8612      8615      8618
      8615      8618      8621      8622      8615      8618      8621      8623
      8615      8618      8621      8624      8616      8615      8618      8619
      8616      8615      8618      8620      8616      8615      8618      8621
      8617      8615      8618      8619      8617      8615      8618      8620
      8617      8615      8618      8621      8618      8621      8624      8625
      8618      8621      8624      8626      8618      8621      8624      8627
      8619      8618      8621      8622      8619      8618      8621      8623
      8619      8618      8621      8624      8620      8618      8621      8622
      8620      8618      8621      8623      8620      8618      8621      8624
      8621      8624      8627      8628      8621      8624      8627      8629
      8621      8624      8627      8630      8622      8621      8624      8625
      8622      8621      8624      8626      8622      8621      8624      8627
      8623      8621      8624      8625      8623      8621      8624      8626
      8623      8621      8624      8627      8625      8624      8627      8628
      8625      8624      8627      8629      8625      8624      8627      8630
      8626      8624      8627      8628      8626      8624      8627      8629
      8626      8624      8627      8630      8631      8634      8637      8638
      8631      8634      8637      8639      8631      8634      8637      8640
      8632      8631      8634      8635      8632      8631      8634      8636
      8632      8631      8634      8637      8633      8631      8634      8635
      8633      8631      8634      8636      8633      8631      8634      8637
      8634      8637      8640      8641      8634      8637      8640      8642
      8634      8637      8640      8643      8635      8634      8637      8638
      8635      8634      8637      8639      8635      8634      8637      8640
      8636      8634      8637      8638      8636      8634      8637      8639
      8636      8634      8637      8640      8637      8640      8643      8644
      8637      8640      8643      8645      8637      8640      8643      8646
      8638      8637      8640      8641      8638      8637      8640      8642
      8638      8637      8640      8643      8639      8637      8640      8641
      8639      8637      8640      8642      8639      8637      8640      8643
      8640      8643      8646      8647      8640      8643      8646      8648
      8640      8643      8646      8649      8641      8640      8643      8644
      8641      8640      8643      8645      8641      8640      8643      8646
      8642      8640      8643      8644      8642      8640      8643      8645
      8642      8640      8643      8646      8643      8646      8649      8650
      8643      8646      8649      8651      8643      8646      8649      8652
      8644      8643      8646      8647      8644      8643      8646      8648
      8644      8643      8646      8649      8645      8643      8646      8647
      8645      8643      8646      8648      8645      8643      8646      8649
      8646      8649      8652      8653      8646      8649      8652      8654
      8646      8649      8652      8655      8647      8646      8649      8650
      8647      8646      8649      8651      8647      8646      8649      8652
      8648      8646      8649      8650      8648      8646      8649      8651
      8648      8646      8649      8652      8649      8652      8655      8656
      8649      8652      8655      8657      8649      8652      8655      8658
      8650      8649      8652      8653      8650      8649      8652      8654
      8650      8649      8652      8655      8651      8649      8652      8653
      8651      8649      8652      8654      8651      8649      8652      8655
      8652      8655      8658      8659      8652      8655      8658      8660
      8652      8655      8658      8661      8653      8652      8655      8656
      8653      8652      8655      8657      8653      8652      8655      8658
      8654      8652      8655      8656      8654      8652      8655      8657
      8654      8652      8655      8658      8655      8658      8661      8662
      8655      8658      8661      8663      8655      8658      8661      8664
      8656      8655      8658      8659      8656      8655      8658      8660
      8656      8655      8658      8661      8657      8655      8658      8659
      8657      8655      8658      8660      8657      8655      8658      8661
      8658      8661      8664      8665      8658      8661      8664      8666
      8658      8661      8664      8667      8659      8658      8661      8662
      8659      8658      8661      8663      8659      8658      8661      8664
      8660      8658      8661      8662      8660      8658      8661      8663
      8660      8658      8661      8664      8661      8664      8667      8668
      8661      8664      8667      8669      8661      8664      8667      8670
      8662      8661      8664      8665      8662      8661      8664      8666
      8662      8661      8664      8667      8663      8661      8664      8665
      8663      8661      8664      8666      8663      8661      8664      8667
      8664      8667      8670      8671      8664      8667      8670      8672
      8664      8667      8670      8673      8665      8664      8667      8668
      8665      8664      8667      8669      8665      8664      8667      8670
      8666      8664      8667      8668      8666      8664      8667      8669
      8666      8664      8667      8670      8668      8667      8670      8671
      8668      8667      8670      8672      8668      8667      8670      8673
      8669      8667      8670      8671      8669      8667      8670      8672
      8669      8667      8670      8673      8674      8678      8681      8682
      8674      8678      8681      8683      8674      8678      8681      8688
      8675      8674      8678      8679      8675      8674      8678      8680
      8675      8674      8678      8681      8676      8674      8678      8679
      8676      8674      8678      8680      8676      8674      8678      8681
      8677      8674      8678      8679      8677      8674      8678      8680
      8677      8674      8678      8681      8678      8681      8688      8684
      8679      8678      8681      8682      8679      8678      8681      8683
      8679      8678      8681      8688      8680      8678      8681      8682
      8680      8678      8681      8683      8680      8678      8681      8688
      8681      8688      8684      8685      8681      8688      8684      8686
      8681      8688      8684      8687      8682      8681      8688      8684
      8683      8681      8688      8684      8684      8687      8689      8690
      8684      8687      8689      8691      8684      8687      8689      8692
      8685      8684      8687      8689      8686      8684      8687      8689
      8687      8689      8692      8693      8687      8689      8692      8694
      8687      8689      8692      8700      8688      8684      8687      8689
      8689      8692      8694      8695      8689      8692      8700      8701
      8689      8692      8700      8702      8689      8692      8700      8703
      8690      8689      8692      8693      8690      8689      8692      8694
      8690      8689      8692      8700      8691      8689      8692      8693
      8691      8689      8692      8694      8691      8689      8692      8700
      8692      8694      8695      8696      8692      8694      8695      8697
      8692      8700      8703      8704      8693      8692      8694      8695
      8693      8692      8700      8701      8693      8692      8700      8702
      8693      8692      8700      8703      8694      8692      8700      8701
      8694      8692      8700      8702      8694      8692      8700      8703
      8694      8695      8697      8698      8694      8695      8697      8699
      8694      8695      8697      8709      8695      8694      8692      8700
      8695      8697      8709      8710      8695      8697      8709      8711
      8695      8697      8709      8712      8696      8695      8697      8698
      8696      8695      8697      8699      8696      8695      8697      8709
      8697      8709      8712      8713      8697      8709      8712      8714
      8697      8709      8712      8715      8698      8697      8709      8710
      8698      8697      8709      8711      8698      8697      8709      8712
      8699      8697      8709      8710      8699      8697      8709      8711
      8699      8697      8709      8712      8700      8703      8704      8705
      8700      8703      8704      8706      8701      8700      8703      8704
      8702      8700      8703      8704      8703      8704      8706      8707
      8703      8704      8706      8708      8703      8704      8706      8750
      8704      8706      8750      8751      8704      8706      8750      8752
      8704      8706      8750      8753      8705      8704      8706      8707
      8705      8704      8706      8708      8705      8704      8706      8750
      8706      8750      8753      8754      8706      8750      8753      8755
      8706      8750      8753      8756      8707      8706      8750      8751
      8707      8706      8750      8752      8707      8706      8750      8753
      8708      8706      8750      8751      8708      8706      8750      8752
      8708      8706      8750      8753      8709      8712      8715      8716
      8709      8712      8715      8717      8709      8712      8715      8718
      8710      8709      8712      8713      8710      8709      8712      8714
      8710      8709      8712      8715      8711      8709      8712      8713
      8711      8709      8712      8714      8711      8709      8712      8715
      8712      8715      8718      8719      8712      8715      8718      8720
      8712      8715      8718      8721      8713      8712      8715      8716
      8713      8712      8715      8717      8713      8712      8715      8718
      8714      8712      8715      8716      8714      8712      8715      8717
      8714      8712      8715      8718      8715      8718      8721      8722
      8715      8718      8721      8723      8715      8718      8721      8724
      8716      8715      8718      8719      8716      8715      8718      8720
      8716      8715      8718      8721      8717      8715      8718      8719
      8717      8715      8718      8720      8717      8715      8718      8721
      8718      8721      8724      8725      8718      8721      8724      8726
      8718      8721      8724      8727      8719      8718      8721      8722
      8719      8718      8721      8723      8719      8718      8721      8724
      8720      8718      8721      8722      8720      8718      8721      8723
      8720      8718      8721      8724      8721      8724      8727      8728
      8721      8724      8727      8729      8722      8721      8724      8725
      8722      8721      8724      8726      8722      8721      8724      8727
      8723      8721      8724      8725      8723      8721      8724      8726
      8723      8721      8724      8727      8724      8727      8729      8730
      8724      8727      8729      8731      8725      8724      8727      8728
      8725      8724      8727      8729      8726      8724      8727      8728
      8726      8724      8727      8729      8727      8729      8731      8732
      8727      8729      8731      8733      8727      8729      8731      8734
      8728      8727      8729      8730      8728      8727      8729      8731
      8729      8731      8734      8735      8729      8731      8734      8736
      8729      8731      8734      8737      8730      8729      8731      8732
      8730      8729      8731      8733      8730      8729      8731      8734
      8731      8734      8737      8738      8731      8734      8737      8739
      8731      8734      8737      8740      8732      8731      8734      8735
      8732      8731      8734      8736      8732      8731      8734      8737
      8733      8731      8734      8735      8733      8731      8734      8736
      8733      8731      8734      8737      8734      8737      8740      8741
      8734      8737      8740      8742      8734      8737      8740      8743
      8735      8734      8737      8738      8735      8734      8737      8739
      8735      8734      8737      8740      8736      8734      8737      8738
      8736      8734      8737      8739      8736      8734      8737      8740
      8737      8740      8743      8744      8737      8740      8743      8745
      8737      8740      8743      8746      8738      8737      8740      8741
      8738      8737      8740      8742      8738      8737      8740      8743
      8739      8737      8740      8741      8739      8737      8740      8742
      8739      8737      8740      8743      8740      8743      8746      8747
      8740      8743      8746      8748      8740      8743      8746      8749
      8741      8740      8743      8744      8741      8740      8743      8745
      8741      8740      8743      8746      8742      8740      8743      8744
      8742      8740      8743      8745      8742      8740      8743      8746
      8744      8743      8746      8747      8744      8743      8746      8748
      8744      8743      8746      8749      8745      8743      8746      8747
      8745      8743      8746      8748      8745      8743      8746      8749
      8750      8753      8756      8757      8750      8753      8756      8758
      8750      8753      8756      8759      8751      8750      8753      8754
      8751      8750      8753      8755      8751      8750      8753      8756
      8752      8750      8753      8754      8752      8750      8753      8755
      8752      8750      8753      8756      8753      8756      8759      8760
      8753      8756      8759      8761      8753      8756      8759      8762
      8754      8753      8756      8757      8754      8753      8756      8758
      8754      8753      8756      8759      8755      8753      8756      8757
      8755      8753      8756      8758      8755      8753      8756      8759
      8756      8759      8762      8763      8756      8759      8762      8764
      8756      8759      8762      8765      8757      8756      8759      8760
      8757      8756      8759      8761      8757      8756      8759      8762
      8758      8756      8759      8760      8758      8756      8759      8761
      8758      8756      8759      8762      8759      8762      8765      8766
      8759      8762      8765      8767      8759      8762      8765      8768
      8760      8759      8762      8763      8760      8759      8762      8764
      8760      8759      8762      8765      8761      8759      8762      8763
      8761      8759      8762      8764      8761      8759      8762      8765
      8762      8765      8768      8769      8762      8765      8768      8770
      8763      8762      8765      8766      8763      8762      8765      8767
      8763      8762      8765      8768      8764      8762      8765      8766
      8764      8762      8765      8767      8764      8762      8765      8768
      8765      8768      8770      8771      8765      8768      8770      8772
      8766      8765      8768      8769      8766      8765      8768      8770
      8767      8765      8768      8769      8767      8765      8768      8770
      8768      8770      8772      8773      8768      8770      8772      8774
      8768      8770      8772      8775      8769      8768      8770      8771
      8769      8768      8770      8772      8770      8772      8775      8776
      8770      8772      8775      8777      8770      8772      8775      8778
      8771      8770      8772      8773      8771      8770      8772      8774
      8771      8770      8772      8775      8772      8775      8778      8779
      8772      8775      8778      8780      8772      8775      8778      8781
      8773      8772      8775      8776      8773      8772      8775      8777
      8773      8772      8775      8778      8774      8772      8775      8776
      8774      8772      8775      8777      8774      8772      8775      8778
      8775      8778      8781      8782      8775      8778      8781      8783
      8775      8778      8781      8784      8776      8775      8778      8779
      8776      8775      8778      8780      8776      8775      8778      8781
      8777      8775      8778      8779      8777      8775      8778      8780
      8777      8775      8778      8781      8778      8781      8784      8785
      8778      8781      8784      8786      8778      8781      8784      8787
      8779      8778      8781      8782      8779      8778      8781      8783
      8779      8778      8781      8784      8780      8778      8781      8782
      8780      8778      8781      8783      8780      8778      8781      8784
      8781      8784      8787      8788      8781      8784      8787      8789
      8781      8784      8787      8790      8782      8781      8784      8785
      8782      8781      8784      8786      8782      8781      8784      8787
      8783      8781      8784      8785      8783      8781      8784      8786
      8783      8781      8784      8787      8784      8787      8790      8791
      8784      8787      8790      8792      8784      8787      8790      8793
      8785      8784      8787      8788      8785      8784      8787      8789
      8785      8784      8787      8790      8786      8784      8787      8788
      8786      8784      8787      8789      8786      8784      8787      8790
      8787      8790      8793      8794      8787      8790      8793      8795
      8787      8790      8793      8796      8788      8787      8790      8791
      8788      8787      8790      8792      8788      8787      8790      8793
      8789      8787      8790      8791      8789      8787      8790      8792
      8789      8787      8790      8793      8791      8790      8793      8794
      8791      8790      8793      8795      8791      8790      8793      8796
      8792      8790      8793      8794      8792      8790      8793      8795
      8792      8790      8793      8796      8797      8801      8804      8805
      8797      8801      8804      8806      8797      8801      8804      8811
      8798      8797      8801      8802      8798      8797      8801      8803
      8798      8797      8801      8804      8799      8797      8801      8802
      8799      8797      8801      8803      8799      8797      8801      8804
      8800      8797      8801      8802      8800      8797      8801      8803
      8800      8797      8801      8804      8801      8804      8811      8807
      8802      8801      8804      8805      8802      8801      8804      8806
      8802      8801      8804      8811      8803      8801      8804      8805
      8803      8801      8804      8806      8803      8801      8804      8811
      8804      8811      8807      8808      8804      8811      8807      8809
      8804      8811      8807      8810      8805      8804      8811      8807
      8806      8804      8811      8807      8807      8810      8812      8813
      8807      8810      8812      8814      8807      8810      8812      8815
      8808      8807      8810      8812      8809      8807      8810      8812
      8810      8812      8815      8816      8810      8812      8815      8817
      8810      8812      8815      8823      8811      8807      8810      8812
      8812      8815      8817      8818      8812      8815      8823      8824
      8812      8815      8823      8825      8812      8815      8823      8826
      8813      8812      8815      8816      8813      8812      8815      8817
      8813      8812      8815      8823      8814      8812      8815      8816
      8814      8812      8815      8817      8814      8812      8815      8823
      8815      8817      8818      8819      8815      8817      8818      8820
      8815      8823      8826      8827      8816      8815      8817      8818
      8816      8815      8823      8824      8816      8815      8823      8825
      8816      8815      8823      8826      8817      8815      8823      8824
      8817      8815      8823      8825      8817      8815      8823      8826
      8817      8818      8820      8821      8817      8818      8820      8822
      8817      8818      8820      8832      8818      8817      8815      8823
      8818      8820      8832      8833      8818      8820      8832      8834
      8818      8820      8832      8835      8819      8818      8820      8821
      8819      8818      8820      8822      8819      8818      8820      8832
      8820      8832      8835      8836      8820      8832      8835      8837
      8820      8832      8835      8838      8821      8820      8832      8833
      8821      8820      8832      8834      8821      8820      8832      8835
      8822      8820      8832      8833      8822      8820      8832      8834
      8822      8820      8832      8835      8823      8826      8827      8828
      8823      8826      8827      8829      8824      8823      8826      8827
      8825      8823      8826      8827      8826      8827      8829      8830
      8826      8827      8829      8831      8826      8827      8829      8876
      8827      8829      8876      8877      8827      8829      8876      8878
      8827      8829      8876      8879      8828      8827      8829      8830
      8828      8827      8829      8831      8828      8827      8829      8876
      8829      8876      8879      8880      8829      8876      8879      8881
      8829      8876      8879      8882      8830      8829      8876      8877
      8830      8829      8876      8878      8830      8829      8876      8879
      8831      8829      8876      8877      8831      8829      8876      8878
      8831      8829      8876      8879      8832      8835      8838      8839
      8832      8835      8838      8840      8832      8835      8838      8841
      8833      8832      8835      8836      8833      8832      8835      8837
      8833      8832      8835      8838      8834      8832      8835      8836
      8834      8832      8835      8837      8834      8832      8835      8838
      8835      8838      8841      8842      8835      8838      8841      8843
      8835      8838      8841      8844      8836      8835      8838      8839
      8836      8835      8838      8840      8836      8835      8838      8841
      8837      8835      8838      8839      8837      8835      8838      8840
      8837      8835      8838      8841      8838      8841      8844      8845
      8838      8841      8844      8846      8838      8841      8844      8847
      8839      8838      8841      8842      8839      8838      8841      8843
      8839      8838      8841      8844      8840      8838      8841      8842
      8840      8838      8841      8843      8840      8838      8841      8844
      8841      8844      8847      8848      8841      8844      8847      8849
      8841      8844      8847      8850      8842      8841      8844      8845
      8842      8841      8844      8846      8842      8841      8844      8847
      8843      8841      8844      8845      8843      8841      8844      8846
      8843      8841      8844      8847      8844      8847      8850      8851
      8844      8847      8850      8852      8844      8847      8850      8855
      8845      8844      8847      8848      8845      8844      8847      8849
      8845      8844      8847      8850      8846      8844      8847      8848
      8846      8844      8847      8849      8846      8844      8847      8850
      8847      8850      8852      8853      8847      8850      8852      8854
      8847      8850      8852      8855      8847      8850      8855      8852
      8847      8850      8855      8856      8847      8850      8855      8857
      8848      8847      8850      8851      8848      8847      8850      8852
      8848      8847      8850      8855      8849      8847      8850      8851
      8849      8847      8850      8852      8849      8847      8850      8855
      8850      8852      8855      8856      8850      8852      8855      8857
      8850      8855      8852      8853      8850      8855      8852      8854
      8850      8855      8857      8858      8850      8855      8857      8859
      8850      8855      8857      8860      8851      8850      8852      8853
      8851      8850      8852      8854      8851      8850      8852      8855
      8851      8850      8855      8852      8851      8850      8855      8856
      8851      8850      8855      8857      8852      8850      8855      8856
      8852      8850      8855      8857      8852      8855      8857      8858
      8852      8855      8857      8859      8852      8855      8857      8860
      8853      8852      8850      8855      8853      8852      8855      8856
      8853      8852      8855      8857      8854      8852      8850      8855
      8854      8852      8855      8856      8854      8852      8855      8857
      8855      8857      8860      8861      8855      8857      8860      8862
      8855      8857      8860      8863      8856      8855      8857      8858
      8856      8855      8857      8859      8856      8855      8857      8860
      8857      8860      8863      8864      8857      8860      8863      8865
      8857      8860      8863      8866      8858      8857      8860      8861
      8858      8857      8860      8862      8858      8857      8860      8863
      8859      8857      8860      8861      8859      8857      8860      8862
      8859      8857      8860      8863      8860      8863      8866      8867
      8860      8863      8866      8868      8860      8863      8866      8869
      8861      8860      8863      8864      8861      8860      8863      8865
      8861      8860      8863      8866      8862      8860      8863      8864
      8862      8860      8863      8865      8862      8860      8863      8866
      8863      8866      8869      8870      8863      8866      8869      8871
      8863      8866      8869      8872      8864      8863      8866      8867
      8864      8863      8866      8868      8864      8863      8866      8869
      8865      8863      8866      8867      8865      8863      8866      8868
      8865      8863      8866      8869      8866      8869      8872      8873
      8866      8869      8872      8874      8866      8869      8872      8875
      8867      8866      8869      8870      8867      8866      8869      8871
      8867      8866      8869      8872      8868      8866      8869      8870
      8868      8866      8869      8871      8868      8866      8869      8872
      8870      8869      8872      8873      8870      8869      8872      8874
      8870      8869      8872      8875      8871      8869      8872      8873
      8871      8869      8872      8874      8871      8869      8872      8875
      8876      8879      8882      8883      8876      8879      8882      8884
      8876      8879      8882      8885      8877      8876      8879      8880
      8877      8876      8879      8881      8877      8876      8879      8882
      8878      8876      8879      8880      8878      8876      8879      8881
      8878      8876      8879      8882      8879      8882      8885      8886
      8879      8882      8885      8887      8879      8882      8885      8888
      8880      8879      8882      8883      8880      8879      8882      8884
      8880      8879      8882      8885      8881      8879      8882      8883
      8881      8879      8882      8884      8881      8879      8882      8885
      8882      8885      8888      8889      8882      8885      8888      8890
      8882      8885      8888      8891      8883      8882      8885      8886
      8883      8882      8885      8887      8883      8882      8885      8888
      8884      8882      8885      8886      8884      8882      8885      8887
      8884      8882      8885      8888      8885      8888      8891      8892
      8885      8888      8891      8893      8885      8888      8891      8894
      8886      8885      8888      8889      8886      8885      8888      8890
      8886      8885      8888      8891      8887      8885      8888      8889
      8887      8885      8888      8890      8887      8885      8888      8891
      8888      8891      8894      8895      8888      8891      8894      8896
      8888      8891      8894      8897      8889      8888      8891      8892
      8889      8888      8891      8893      8889      8888      8891      8894
      8890      8888      8891      8892      8890      8888      8891      8893
      8890      8888      8891      8894      8891      8894      8897      8898
      8891      8894      8897      8899      8891      8894      8897      8900
      8892      8891      8894      8895      8892      8891      8894      8896
      8892      8891      8894      8897      8893      8891      8894      8895
      8893      8891      8894      8896      8893      8891      8894      8897
      8894      8897      8900      8901      8894      8897      8900      8902
      8894      8897      8900      8903      8895      8894      8897      8898
      8895      8894      8897      8899      8895      8894      8897      8900
      8896      8894      8897      8898      8896      8894      8897      8899
      8896      8894      8897      8900      8897      8900      8903      8904
      8897      8900      8903      8905      8897      8900      8903      8906
      8898      8897      8900      8901      8898      8897      8900      8902
      8898      8897      8900      8903      8899      8897      8900      8901
      8899      8897      8900      8902      8899      8897      8900      8903
      8900      8903      8906      8907      8900      8903      8906      8908
      8900      8903      8906      8909      8901      8900      8903      8904
      8901      8900      8903      8905      8901      8900      8903      8906
      8902      8900      8903      8904      8902      8900      8903      8905
      8902      8900      8903      8906      8903      8906      8909      8910
      8903      8906      8909      8911      8903      8906      8909      8912
      8904      8903      8906      8907      8904      8903      8906      8908
      8904      8903      8906      8909      8905      8903      8906      8907
      8905      8903      8906      8908      8905      8903      8906      8909
      8906      8909      8912      8913      8906      8909      8912      8914
      8906      8909      8912      8915      8907      8906      8909      8910
      8907      8906      8909      8911      8907      8906      8909      8912
      8908      8906      8909      8910      8908      8906      8909      8911
      8908      8906      8909      8912      8910      8909      8912      8913
      8910      8909      8912      8914      8910      8909      8912      8915
      8911      8909      8912      8913      8911      8909      8912      8914
      8911      8909      8912      8915      8916      8921      8923      8924
      8916      8921      8925      8926      8916      8921      8925      8927
      8916      8921      8925      8932      8917      8916      8919      8920
      8917      8916      8921      8922      8917      8916      8921      8923
      8917      8916      8921      8925      8918      8916      8919      8920
      8918      8916      8921      8922      8918      8916      8921      8923
      8918      8916      8921      8925      8919      8916      8921      8922
      8919      8916      8921      8923      8919      8916      8921      8925
      8920      8919      8916      8921      8921      8925      8932      8928
      8922      8921      8923      8924      8922      8921      8925      8926
      8922      8921      8925      8927      8922      8921      8925      8932
      8923      8921      8925      8926      8923      8921      8925      8927
      8923      8921      8925      8932      8924      8923      8921      8925
      8925      8932      8928      8929      8925      8932      8928      8930
      8925      8932      8928      8931      8926      8925      8932      8928
      8927      8925      8932      8928      8928      8931      8933      8934
      8928      8931      8933      8935      8928      8931      8933      8936
      8929      8928      8931      8933      8930      8928      8931      8933
      8931      8933      8936      8937      8931      8933      8936      8938
      8931      8933      8936      8944      8932      8928      8931      8933
      8933      8936      8938      8939      8933      8936      8944      8945
      8933      8936      8944      8946      8933      8936      8944      8947
      8934      8933      8936      8937      8934      8933      8936      8938
      8934      8933      8936      8944      8935      8933      8936      8937
      8935      8933      8936      8938      8935      8933      8936      8944
      8936      8938      8939      8940      8936      8938      8939      8941
      8936      8944      8947      8948      8937      8936      8938      8939
      8937      8936      8944      8945      8937      8936      8944      8946
      8937      8936      8944      8947      8938      8936      8944      8945
      8938      8936      8944      8946      8938      8936      8944      8947
      8938      8939      8941      8942      8938      8939      8941      8943
      8938      8939      8941      8953      8939      8938      8936      8944
      8939      8941      8953      8954      8939      8941      8953      8955
      8939      8941      8953      8956      8940      8939      8941      8942
      8940      8939      8941      8943      8940      8939      8941      8953
      8941      8953      8956      8957      8941      8953      8956      8958
      8941      8953      8956      8959      8942      8941      8953      8954
      8942      8941      8953      8955      8942      8941      8953      8956
      8943      8941      8953      8954      8943      8941      8953      8955
      8943      8941      8953      8956      8944      8947      8948      8949
      8944      8947      8948      8950      8945      8944      8947      8948
      8946      8944      8947      8948      8947      8948      8950      8951
      8947      8948      8950      8952      8947      8948      8950      8997
      8948      8950      8997      8998      8948      8950      8997      8999
      8948      8950      8997      9000      8949      8948      8950      8951
      8949      8948      8950      8952      8949      8948      8950      8997
      8950      8997      9000      9001      8950      8997      9000      9002
      8950      8997      9000      9003      8951      8950      8997      8998
      8951      8950      8997      8999      8951      8950      8997      9000
      8952      8950      8997      8998      8952      8950      8997      8999
      8952      8950      8997      9000      8953      8956      8959      8960
      8953      8956      8959      8961      8953      8956      8959      8962
      8954      8953      8956      8957      8954      8953      8956      8958
      8954      8953      8956      8959      8955      8953      8956      8957
      8955      8953      8956      8958      8955      8953      8956      8959
      8956      8959      8962      8963      8956      8959      8962      8964
      8956      8959      8962      8965      8957      8956      8959      8960
      8957      8956      8959      8961      8957      8956      8959      8962
      8958      8956      8959      8960      8958      8956      8959      8961
      8958      8956      8959      8962      8959      8962      8965      8966
      8959      8962      8965      8967      8959      8962      8965      8968
      8960      8959      8962      8963      8960      8959      8962      8964
      8960      8959      8962      8965      8961      8959      8962      8963
      8961      8959      8962      8964      8961      8959      8962      8965
      8962      8965      8968      8969      8962      8965      8968      8970
      8962      8965      8968      8971      8963      8962      8965      8966
      8963      8962      8965      8967      8963      8962      8965      8968
      8964      8962      8965      8966      8964      8962      8965      8967
      8964      8962      8965      8968      8965      8968      8971      8972
      8965      8968      8971      8973      8965      8968      8971      8976
      8966      8965      8968      8969      8966      8965      8968      8970
      8966      8965      8968      8971      8967      8965      8968      8969
      8967      8965      8968      8970      8967      8965      8968      8971
      8968      8971      8973      8974      8968      8971      8973      8975
      8968      8971      8973      8976      8968      8971      8976      8973
      8968      8971      8976      8977      8968      8971      8976      8978
      8969      8968      8971      8972      8969      8968      8971      8973
      8969      8968      8971      8976      8970      8968      8971      8972
      8970      8968      8971      8973      8970      8968      8971      8976
      8971      8973      8976      8977      8971      8973      8976      8978
      8971      8976      8973      8974      8971      8976      8973      8975
      8971      8976      8978      8979      8971      8976      8978      8980
      8971      8976      8978      8981      8972      8971      8973      8974
      8972      8971      8973      8975      8972      8971      8973      8976
      8972      8971      8976      8973      8972      8971      8976      8977
      8972      8971      8976      8978      8973      8971      8976      8977
      8973      8971      8976      8978      8973      8976      8978      8979
      8973      8976      8978      8980      8973      8976      8978      8981
      8974      8973      8971      8976      8974      8973      8976      8977
      8974      8973      8976      8978      8975      8973      8971      8976
      8975      8973      8976      8977      8975      8973      8976      8978
      8976      8978      8981      8982      8976      8978      8981      8983
      8976      8978      8981      8984      8977      8976      8978      8979
      8977      8976      8978      8980      8977      8976      8978      8981
      8978      8981      8984      8985      8978      8981      8984      8986
      8978      8981      8984      8987      8979      8978      8981      8982
      8979      8978      8981      8983      8979      8978      8981      8984
      8980      8978      8981      8982      8980      8978      8981      8983
      8980      8978      8981      8984      8981      8984      8987      8988
      8981      8984      8987      8989      8981      8984      8987      8990
      8982      8981      8984      8985      8982      8981      8984      8986
      8982      8981      8984      8987      8983      8981      8984      8985
      8983      8981      8984      8986      8983      8981      8984      8987
      8984      8987      8990      8991      8984      8987      8990      8992
      8984      8987      8990      8993      8985      8984      8987      8988
      8985      8984      8987      8989      8985      8984      8987      8990
      8986      8984      8987      8988      8986      8984      8987      8989
      8986      8984      8987      8990      8987      8990      8993      8994
      8987      8990      8993      8995      8987      8990      8993      8996
      8988      8987      8990      8991      8988      8987      8990      8992
      8988      8987      8990      8993      8989      8987      8990      8991
      8989      8987      8990      8992      8989      8987      8990      8993
      8991      8990      8993      8994      8991      8990      8993      8995
      8991      8990      8993      8996      8992      8990      8993      8994
      8992      8990      8993      8995      8992      8990      8993      8996
      8997      9000      9003      9004      8997      9000      9003      9005
      8997      9000      9003      9006      8998      8997      9000      9001
      8998      8997      9000      9002      8998      8997      9000      9003
      8999      8997      9000      9001      8999      8997      9000      9002
      8999      8997      9000      9003      9000      9003      9006      9007
      9000      9003      9006      9008      9000      9003      9006      9009
      9001      9000      9003      9004      9001      9000      9003      9005
      9001      9000      9003      9006      9002      9000      9003      9004
      9002      9000      9003      9005      9002      9000      9003      9006
      9003      9006      9009      9010      9003      9006      9009      9011
      9003      9006      9009      9012      9004      9003      9006      9007
      9004      9003      9006      9008      9004      9003      9006      9009
      9005      9003      9006      9007      9005      9003      9006      9008
      9005      9003      9006      9009      9006      9009      9012      9013
      9006      9009      9012      9014      9006      9009      9012      9015
      9007      9006      9009      9010      9007      9006      9009      9011
      9007      9006      9009      9012      9008      9006      9009      9010
      9008      9006      9009      9011      9008      9006      9009      9012
      9009      9012      9015      9016      9009      9012      9015      9017
      9009      9012      9015      9018      9010      9009      9012      9013
      9010      9009      9012      9014      9010      9009      9012      9015
      9011      9009      9012      9013      9011      9009      9012      9014
      9011      9009      9012      9015      9012      9015      9018      9019
      9012      9015      9018      9020      9012      9015      9018      9021
      9013      9012      9015      9016      9013      9012      9015      9017
      9013      9012      9015      9018      9014      9012      9015      9016
      9014      9012      9015      9017      9014      9012      9015      9018
      9015      9018      9021      9022      9015      9018      9021      9023
      9015      9018      9021      9024      9016      9015      9018      9019
      9016      9015      9018      9020      9016      9015      9018      9021
      9017      9015      9018      9019      9017      9015      9018      9020
      9017      9015      9018      9021      9018      9021      9024      9025
      9018      9021      9024      9026      9018      9021      9024      9027
      9019      9018      9021      9022      9019      9018      9021      9023
      9019      9018      9021      9024      9020      9018      9021      9022
      9020      9018      9021      9023      9020      9018      9021      9024
      9021      9024      9027      9028      9021      9024      9027      9029
      9021      9024      9027      9030      9022      9021      9024      9025
      9022      9021      9024      9026      9022      9021      9024      9027
      9023      9021      9024      9025      9023      9021      9024      9026
      9023      9021      9024      9027      9024      9027      9030      9031
      9024      9027      9030      9032      9024      9027      9030      9033
      9025      9024      9027      9028      9025      9024      9027      9029
      9025      9024      9027      9030      9026      9024      9027      9028
      9026      9024      9027      9029      9026      9024      9027      9030
      9027      9030      9033      9034      9027      9030      9033      9035
      9027      9030      9033      9036      9028      9027      9030      9031
      9028      9027      9030      9032      9028      9027      9030      9033
      9029      9027      9030      9031      9029      9027      9030      9032
      9029      9027      9030      9033      9030      9033      9036      9037
      9030      9033      9036      9038      9030      9033      9036      9039
      9031      9030      9033      9034      9031      9030      9033      9035
      9031      9030      9033      9036      9032      9030      9033      9034
      9032      9030      9033      9035      9032      9030      9033      9036
      9034      9033      9036      9037      9034      9033      9036      9038
      9034      9033      9036      9039      9035      9033      9036      9037
      9035      9033      9036      9038      9035      9033      9036      9039
      9040      9044      9047      9048      9040      9044      9047      9049
      9040      9044      9047      9054      9041      9040      9044      9045
      9041      9040      9044      9046      9041      9040      9044      9047
      9042      9040      9044      9045      9042      9040      9044      9046
      9042      9040      9044      9047      9043      9040      9044      9045
      9043      9040      9044      9046      9043      9040      9044      9047
      9044      9047      9054      9050      9045      9044      9047      9048
      9045      9044      9047      9049      9045      9044      9047      9054
      9046      9044      9047      9048      9046      9044      9047      9049
      9046      9044      9047      9054      9047      9054      9050      9051
      9047      9054      9050      9052      9047      9054      9050      9053
      9048      9047      9054      9050      9049      9047      9054      9050
      9050      9053      9055      9056      9050      9053      9055      9057
      9050      9053      9055      9058      9051      9050      9053      9055
      9052      9050      9053      9055      9053      9055      9058      9059
      9053      9055      9058      9060      9053      9055      9058      9066
      9054      9050      9053      9055      9055      9058      9060      9061
      9055      9058      9066      9067      9055      9058      9066      9068
      9055      9058      9066      9069      9056      9055      9058      9059
      9056      9055      9058      9060      9056      9055      9058      9066
      9057      9055      9058      9059      9057      9055      9058      9060
      9057      9055      9058      9066      9058      9060      9061      9062
      9058      9060      9061      9063      9058      9066      9069      9070
      9059      9058      9060      9061      9059      9058      9066      9067
      9059      9058      9066      9068      9059      9058      9066      9069
      9060      9058      9066      9067      9060      9058      9066      9068
      9060      9058      9066      9069      9060      9061      9063      9064
      9060      9061      9063      9065      9060      9061      9063      9075
      9061      9060      9058      9066      9061      9063      9075      9076
      9061      9063      9075      9077      9061      9063      9075      9078
      9062      9061      9063      9064      9062      9061      9063      9065
      9062      9061      9063      9075      9063      9075      9078      9079
      9063      9075      9078      9080      9063      9075      9078      9081
      9064      9063      9075      9076      9064      9063      9075      9077
      9064      9063      9075      9078      9065      9063      9075      9076
      9065      9063      9075      9077      9065      9063      9075      9078
      9066      9069      9070      9071      9066      9069      9070      9072
      9067      9066      9069      9070      9068      9066      9069      9070
      9069      9070      9072      9073      9069      9070      9072      9074
      9069      9070      9072      9122      9070      9072      9122      9123
      9070      9072      9122      9124      9070      9072      9122      9125
      9071      9070      9072      9073      9071      9070      9072      9074
      9071      9070      9072      9122      9072      9122      9125      9126
      9072      9122      9125      9127      9072      9122      9125      9128
      9073      9072      9122      9123      9073      9072      9122      9124
      9073      9072      9122      9125      9074      9072      9122      9123
      9074      9072      9122      9124      9074      9072      9122      9125
      9075      9078      9081      9082      9075      9078      9081      9083
      9075      9078      9081      9084      9076      9075      9078      9079
      9076      9075      9078      9080      9076      9075      9078      9081
      9077      9075      9078      9079      9077      9075      9078      9080
      9077      9075      9078      9081      9078      9081      9084      9085
      9078      9081      9084      9086      9078      9081      9084      9087
      9079      9078      9081      9082      9079      9078      9081      9083
      9079      9078      9081      9084      9080      9078      9081      9082
      9080      9078      9081      9083      9080      9078      9081      9084
      9081      9084      9087      9088      9081      9084      9087      9089
      9081      9084      9087      9090      9082      9081      9084      9085
      9082      9081      9084      9086      9082      9081      9084      9087
      9083      9081      9084      9085      9083      9081      9084      9086
      9083      9081      9084      9087      9084      9087      9090      9091
      9084      9087      9090      9092      9084      9087      9090      9093
      9085      9084      9087      9088      9085      9084      9087      9089
      9085      9084      9087      9090      9086      9084      9087      9088
      9086      9084      9087      9089      9086      9084      9087      9090
      9087      9090      9093      9094      9087      9090      9093      9095
      9088      9087      9090      9091      9088      9087      9090      9092
      9088      9087      9090      9093      9089      9087      9090      9091
      9089      9087      9090      9092      9089      9087      9090      9093
      9090      9093      9095      9096      9090      9093      9095      9097
      9091      9090      9093      9094      9091      9090      9093      9095
      9092      9090      9093      9094      9092      9090      9093      9095
      9093      9095      9097      9098      9093      9095      9097      9099
      9093      9095      9097      9100      9094      9093      9095      9096
      9094      9093      9095      9097      9095      9097      9100      9101
      9095      9097      9100      9102      9095      9097      9100      9103
      9096      9095      9097      9098      9096      9095      9097      9099
      9096      9095      9097      9100      9097      9100      9103      9104
      9097      9100      9103      9105      9097      9100      9103      9106
      9098      9097      9100      9101      9098      9097      9100      9102
      9098      9097      9100      9103      9099      9097      9100      9101
      9099      9097      9100      9102      9099      9097      9100      9103
      9100      9103      9106      9107      9100      9103      9106      9108
      9100      9103      9106      9109      9101      9100      9103      9104
      9101      9100      9103      9105      9101      9100      9103      9106
      9102      9100      9103      9104      9102      9100      9103      9105
      9102      9100      9103      9106      9103      9106      9109      9110
      9103      9106      9109      9111      9103      9106      9109      9112
      9104      9103      9106      9107      9104      9103      9106      9108
      9104      9103      9106      9109      9105      9103      9106      9107
      9105      9103      9106      9108      9105      9103      9106      9109
      9106      9109      9112      9113      9106      9109      9112      9114
      9106      9109      9112      9115      9107      9106      9109      9110
      9107      9106      9109      9111      9107      9106      9109      9112
      9108      9106      9109      9110      9108      9106      9109      9111
      9108      9106      9109      9112      9109      9112      9115      9116
      9109      9112      9115      9117      9109      9112      9115      9118
      9110      9109      9112      9113      9110      9109      9112      9114
      9110      9109      9112      9115      9111      9109      9112      9113
      9111      9109      9112      9114      9111      9109      9112      9115
      9112      9115      9118      9119      9112      9115      9118      9120
      9112      9115      9118      9121      9113      9112      9115      9116
      9113      9112      9115      9117      9113      9112      9115      9118
      9114      9112      9115      9116      9114      9112      9115      9117
      9114      9112      9115      9118      9116      9115      9118      9119
      9116      9115      9118      9120      9116      9115      9118      9121
      9117      9115      9118      9119      9117      9115      9118      9120
      9117      9115      9118      9121      9122      9125      9128      9129
      9122      9125      9128      9130      9122      9125      9128      9131
      9123      9122      9125      9126      9123      9122      9125      9127
      9123      9122      9125      9128      9124      9122      9125      9126
      9124      9122      9125      9127      9124      9122      9125      9128
      9125      9128      9131      9132      9125      9128      9131      9133
      9125      9128      9131      9134      9126      9125      9128      9129
      9126      9125      9128      9130      9126      9125      9128      9131
      9127      9125      9128      9129      9127      9125      9128      9130
      9127      9125      9128      9131      9128      9131      9134      9135
      9128      9131      9134      9136      9128      9131      9134      9137
      9129      9128      9131      9132      9129      9128      9131      9133
      9129      9128      9131      9134      9130      9128      9131      9132
      9130      9128      9131      9133      9130      9128      9131      9134
      9131      9134      9137      9138      9131      9134      9137      9139
      9131      9134      9137      9140      9132      9131      9134      9135
      9132      9131      9134      9136      9132      9131      9134      9137
      9133      9131      9134      9135      9133      9131      9134      9136
      9133      9131      9134      9137      9134      9137      9140      9141
      9134      9137      9140      9142      9134      9137      9140      9143
      9135      9134      9137      9138      9135      9134      9137      9139
      9135      9134      9137      9140      9136      9134      9137      9138
      9136      9134      9137      9139      9136      9134      9137      9140
      9137      9140      9143      9144      9137      9140      9143      9145
      9137      9140      9143      9146      9138      9137      9140      9141
      9138      9137      9140      9142      9138      9137      9140      9143
      9139      9137      9140      9141      9139      9137      9140      9142
      9139      9137      9140      9143      9140      9143      9146      9147
      9140      9143      9146      9148      9140      9143      9146      9149
      9141      9140      9143      9144      9141      9140      9143      9145
      9141      9140      9143      9146      9142      9140      9143      9144
      9142      9140      9143      9145      9142      9140      9143      9146
      9143      9146      9149      9150      9143      9146      9149      9151
      9143      9146      9149      9152      9144      9143      9146      9147
      9144      9143      9146      9148      9144      9143      9146      9149
      9145      9143      9146      9147      9145      9143      9146      9148
      9145      9143      9146      9149      9146      9149      9152      9153
      9146      9149      9152      9154      9146      9149      9152      9155
      9147      9146      9149      9150      9147      9146      9149      9151
      9147      9146      9149      9152      9148      9146      9149      9150
      9148      9146      9149      9151      9148      9146      9149      9152
      9149      9152      9155      9156      9149      9152      9155      9157
      9149      9152      9155      9158      9150      9149      9152      9153
      9150      9149      9152      9154      9150      9149      9152      9155
      9151      9149      9152      9153      9151      9149      9152      9154
      9151      9149      9152      9155      9152      9155      9158      9159
      9152      9155      9158      9160      9152      9155      9158      9161
      9153      9152      9155      9156      9153      9152      9155      9157
      9153      9152      9155      9158      9154      9152      9155      9156
      9154      9152      9155      9157      9154      9152      9155      9158
      9155      9158      9161      9162      9155      9158      9161      9163
      9155      9158      9161      9164      9156      9155      9158      9159
      9156      9155      9158      9160      9156      9155      9158      9161
      9157      9155      9158      9159      9157      9155      9158      9160
      9157      9155      9158      9161      9159      9158      9161      9162
      9159      9158      9161      9163      9159      9158      9161      9164
      9160      9158      9161      9162      9160      9158      9161      9163
      9160      9158      9161      9164      9165      9169      9172      9173
      9165      9169      9172      9174      9165      9169      9172      9179
      9166      9165      9169      9170      9166      9165      9169      9171
      9166      9165      9169      9172      9167      9165      9169      9170
      9167      9165      9169      9171      9167      9165      9169      9172
      9168      9165      9169      9170      9168      9165      9169      9171
      9168      9165      9169      9172      9169      9172      9179      9175
      9170      9169      9172      9173      9170      9169      9172      9174
      9170      9169      9172      9179      9171      9169      9172      9173
      9171      9169      9172      9174      9171      9169      9172      9179
      9172      9179      9175      9176      9172      9179      9175      9177
      9172      9179      9175      9178      9173      9172      9179      9175
      9174      9172      9179      9175      9175      9178      9180      9181
      9175      9178      9180      9182      9175      9178      9180      9183
      9176      9175      9178      9180      9177      9175      9178      9180
      9178      9180      9183      9184      9178      9180      9183      9185
      9178      9180      9183      9191      9179      9175      9178      9180
      9180      9183      9185      9186      9180      9183      9191      9192
      9180      9183      9191      9193      9180      9183      9191      9194
      9181      9180      9183      9184      9181      9180      9183      9185
      9181      9180      9183      9191      9182      9180      9183      9184
      9182      9180      9183      9185      9182      9180      9183      9191
      9183      9185      9186      9187      9183      9185      9186      9188
      9183      9191      9194      9195      9184      9183      9185      9186
      9184      9183      9191      9192      9184      9183      9191      9193
      9184      9183      9191      9194      9185      9183      9191      9192
      9185      9183      9191      9193      9185      9183      9191      9194
      9185      9186      9188      9189      9185      9186      9188      9190
      9185      9186      9188      9200      9186      9185      9183      9191
      9186      9188      9200      9201      9186      9188      9200      9202
      9186      9188      9200      9203      9187      9186      9188      9189
      9187      9186      9188      9190      9187      9186      9188      9200
      9188      9200      9203      9204      9188      9200      9203      9205
      9188      9200      9203      9206      9189      9188      9200      9201
      9189      9188      9200      9202      9189      9188      9200      9203
      9190      9188      9200      9201      9190      9188      9200      9202
      9190      9188      9200      9203      9191      9194      9195      9196
      9191      9194      9195      9197      9192      9191      9194      9195
      9193      9191      9194      9195      9194      9195      9197      9198
      9194      9195      9197      9199      9194      9195      9197      9244
      9195      9197      9244      9245      9195      9197      9244      9246
      9195      9197      9244      9247      9196      9195      9197      9198
      9196      9195      9197      9199      9196      9195      9197      9244
      9197      9244      9247      9248      9197      9244      9247      9249
      9197      9244      9247      9250      9198      9197      9244      9245
      9198      9197      9244      9246      9198      9197      9244      9247
      9199      9197      9244      9245      9199      9197      9244      9246
      9199      9197      9244      9247      9200      9203      9206      9207
      9200      9203      9206      9208      9200      9203      9206      9209
      9201      9200      9203      9204      9201      9200      9203      9205
      9201      9200      9203      9206      9202      9200      9203      9204
      9202      9200      9203      9205      9202      9200      9203      9206
      9203      9206      9209      9210      9203      9206      9209      9211
      9203      9206      9209      9212      9204      9203      9206      9207
      9204      9203      9206      9208      9204      9203      9206      9209
      9205      9203      9206      9207      9205      9203      9206      9208
      9205      9203      9206      9209      9206      9209      9212      9213
      9206      9209      9212      9214      9206      9209      9212      9215
      9207      9206      9209      9210      9207      9206      9209      9211
      9207      9206      9209      9212      9208      9206      9209      9210
      9208      9206      9209      9211      9208      9206      9209      9212
      9209      9212      9215      9216      9209      9212      9215      9217
      9209      9212      9215      9218      9210      9209      9212      9213
      9210      9209      9212      9214      9210      9209      9212      9215
      9211      9209      9212      9213      9211      9209      9212      9214
      9211      9209      9212      9215      9212      9215      9218      9219
      9212      9215      9218      9220      9212      9215      9218      9223
      9213      9212      9215      9216      9213      9212      9215      9217
      9213      9212      9215      9218      9214      9212      9215      9216
      9214      9212      9215      9217      9214      9212      9215      9218
      9215      9218      9220      9221      9215      9218      9220      9222
      9215      9218      9220      9223      9215      9218      9223      9220
      9215      9218      9223      9224      9215      9218      9223      9225
      9216      9215      9218      9219      9216      9215      9218      9220
      9216      9215      9218      9223      9217      9215      9218      9219
      9217      9215      9218      9220      9217      9215      9218      9223
      9218      9220      9223      9224      9218      9220      9223      9225
      9218      9223      9220      9221      9218      9223      9220      9222
      9218      9223      9225      9226      9218      9223      9225      9227
      9218      9223      9225      9228      9219      9218      9220      9221
      9219      9218      9220      9222      9219      9218      9220      9223
      9219      9218      9223      9220      9219      9218      9223      9224
      9219      9218      9223      9225      9220      9218      9223      9224
      9220      9218      9223      9225      9220      9223      9225      9226
      9220      9223      9225      9227      9220      9223      9225      9228
      9221      9220      9218      9223      9221      9220      9223      9224
      9221      9220      9223      9225      9222      9220      9218      9223
      9222      9220      9223      9224      9222      9220      9223      9225
      9223      9225      9228      9229      9223      9225      9228      9230
      9223      9225      9228      9231      9224      9223      9225      9226
      9224      9223      9225      9227      9224      9223      9225      9228
      9225      9228      9231      9232      9225      9228      9231      9233
      9225      9228      9231      9234      9226      9225      9228      9229
      9226      9225      9228      9230      9226      9225      9228      9231
      9227      9225      9228      9229      9227      9225      9228      9230
      9227      9225      9228      9231      9228      9231      9234      9235
      9228      9231      9234      9236      9228      9231      9234      9237
      9229      9228      9231      9232      9229      9228      9231      9233
      9229      9228      9231      9234      9230      9228      9231      9232
      9230      9228      9231      9233      9230      9228      9231      9234
      9231      9234      9237      9238      9231      9234      9237      9239
      9231      9234      9237      9240      9232      9231      9234      9235
      9232      9231      9234      9236      9232      9231      9234      9237
      9233      9231      9234      9235      9233      9231      9234      9236
      9233      9231      9234      9237      9234      9237      9240      9241
      9234      9237      9240      9242      9234      9237      9240      9243
      9235      9234      9237      9238      9235      9234      9237      9239
      9235      9234      9237      9240      9236      9234      9237      9238
      9236      9234      9237      9239      9236      9234      9237      9240
      9238      9237      9240      9241      9238      9237      9240      9242
      9238      9237      9240      9243      9239      9237      9240      9241
      9239      9237      9240      9242      9239      9237      9240      9243
      9244      9247      9250      9251      9244      9247      9250      9252
      9244      9247      9250      9253      9245      9244      9247      9248
      9245      9244      9247      9249      9245      9244      9247      9250
      9246      9244      9247      9248      9246      9244      9247      9249
      9246      9244      9247      9250      9247      9250      9253      9254
      9247      9250      9253      9255      9247      9250      9253      9256
      9248      9247      9250      9251      9248      9247      9250      9252
      9248      9247      9250      9253      9249      9247      9250      9251
      9249      9247      9250      9252      9249      9247      9250      9253
      9250      9253      9256      9257      9250      9253      9256      9258
      9250      9253      9256      9259      9251      9250      9253      9254
      9251      9250      9253      9255      9251      9250      9253      9256
      9252      9250      9253      9254      9252      9250      9253      9255
      9252      9250      9253      9256      9253      9256      9259      9260
      9253      9256      9259      9261      9253      9256      9259      9262
      9254      9253      9256      9257      9254      9253      9256      9258
      9254      9253      9256      9259      9255      9253      9256      9257
      9255      9253      9256      9258      9255      9253      9256      9259
      9256      9259      9262      9263      9256      9259      9262      9264
      9256      9259      9262      9265      9257      9256      9259      9260
      9257      9256      9259      9261      9257      9256      9259      9262
      9258      9256      9259      9260      9258      9256      9259      9261
      9258      9256      9259      9262      9259      9262      9265      9266
      9259      9262      9265      9267      9259      9262      9265      9268
      9260      9259      9262      9263      9260      9259      9262      9264
      9260      9259      9262      9265      9261      9259      9262      9263
      9261      9259      9262      9264      9261      9259      9262      9265
      9262      9265      9268      9269      9262      9265      9268      9270
      9262      9265      9268      9271      9263      9262      9265      9266
      9263      9262      9265      9267      9263      9262      9265      9268
      9264      9262      9265      9266      9264      9262      9265      9267
      9264      9262      9265      9268      9265      9268      9271      9272
      9265      9268      9271      9273      9265      9268      9271      9274
      9266      9265      9268      9269      9266      9265      9268      9270
      9266      9265      9268      9271      9267      9265      9268      9269
      9267      9265      9268      9270      9267      9265      9268      9271
      9268      9271      9274      9275      9268      9271      9274      9276
      9268      9271      9274      9277      9269      9268      9271      9272
      9269      9268      9271      9273      9269      9268      9271      9274
      9270      9268      9271      9272      9270      9268      9271      9273
      9270      9268      9271      9274      9271      9274      9277      9278
      9271      9274      9277      9279      9271      9274      9277      9280
      9272      9271      9274      9275      9272      9271      9274      9276
      9272      9271      9274      9277      9273      9271      9274      9275
      9273      9271      9274      9276      9273      9271      9274      9277
      9274      9277      9280      9281      9274      9277      9280      9282
      9274      9277      9280      9283      9275      9274      9277      9278
      9275      9274      9277      9279      9275      9274      9277      9280
      9276      9274      9277      9278      9276      9274      9277      9279
      9276      9274      9277      9280      9277      9280      9283      9284
      9277      9280      9283      9285      9277      9280      9283      9286
      9278      9277      9280      9281      9278      9277      9280      9282
      9278      9277      9280      9283      9279      9277      9280      9281
      9279      9277      9280      9282      9279      9277      9280      9283
      9281      9280      9283      9284      9281      9280      9283      9285
      9281      9280      9283      9286      9282      9280      9283      9284
      9282      9280      9283      9285      9282      9280      9283      9286
      9287      9292      9294      9295      9287      9292      9296      9297
      9287      9292      9296      9298      9287      9292      9296      9303
      9288      9287      9290      9291      9288      9287      9292      9293
      9288      9287      9292      9294      9288      9287      9292      9296
      9289      9287      9290      9291      9289      9287      9292      9293
      9289      9287      9292      9294      9289      9287      9292      9296
      9290      9287      9292      9293      9290      9287      9292      9294
      9290      9287      9292      9296      9291      9290      9287      9292
      9292      9296      9303      9299      9293      9292      9294      9295
      9293      9292      9296      9297      9293      9292      9296      9298
      9293      9292      9296      9303      9294      9292      9296      9297
      9294      9292      9296      9298      9294      9292      9296      9303
      9295      9294      9292      9296      9296      9303      9299      9300
      9296      9303      9299      9301      9296      9303      9299      9302
      9297      9296      9303      9299      9298      9296      9303      9299
      9299      9302      9304      9305      9299      9302      9304      9306
      9299      9302      9304      9307      9300      9299      9302      9304
      9301      9299      9302      9304      9302      9304      9307      9308
      9302      9304      9307      9309      9302      9304      9307      9315
      9303      9299      9302      9304      9304      9307      9309      9310
      9304      9307      9315      9316      9304      9307      9315      9317
      9304      9307      9315      9318      9305      9304      9307      9308
      9305      9304      9307      9309      9305      9304      9307      9315
      9306      9304      9307      9308      9306      9304      9307      9309
      9306      9304      9307      9315      9307      9309      9310      9311
      9307      9309      9310      9312      9307      9315      9318      9319
      9308      9307      9309      9310      9308      9307      9315      9316
      9308      9307      9315      9317      9308      9307      9315      9318
      9309      9307      9315      9316      9309      9307      9315      9317
      9309      9307      9315      9318      9309      9310      9312      9313
      9309      9310      9312      9314      9309      9310      9312      9324
      9310      9309      9307      9315      9310      9312      9324      9325
      9310      9312      9324      9326      9310      9312      9324      9327
      9311      9310      9312      9313      9311      9310      9312      9314
      9311      9310      9312      9324      9312      9324      9327      9328
      9312      9324      9327      9329      9312      9324      9327      9330
      9313      9312      9324      9325      9313      9312      9324      9326
      9313      9312      9324      9327      9314      9312      9324      9325
      9314      9312      9324      9326      9314      9312      9324      9327
      9315      9318      9319      9320      9315      9318      9319      9321
      9316      9315      9318      9319      9317      9315      9318      9319
      9318      9319      9321      9322      9318      9319      9321      9323
      9318      9319      9321      9365      9319      9321      9365      9366
      9319      9321      9365      9367      9319      9321      9365      9368
      9320      9319      9321      9322      9320      9319      9321      9323
      9320      9319      9321      9365      9321      9365      9368      9369
      9321      9365      9368      9370      9321      9365      9368      9371
      9322      9321      9365      9366      9322      9321      9365      9367
      9322      9321      9365      9368      9323      9321      9365      9366
      9323      9321      9365      9367      9323      9321      9365      9368
      9324      9327      9330      9331      9324      9327      9330      9332
      9324      9327      9330      9333      9325      9324      9327      9328
      9325      9324      9327      9329      9325      9324      9327      9330
      9326      9324      9327      9328      9326      9324      9327      9329
      9326      9324      9327      9330      9327      9330      9333      9334
      9327      9330      9333      9335      9327      9330      9333      9336
      9328      9327      9330      9331      9328      9327      9330      9332
      9328      9327      9330      9333      9329      9327      9330      9331
      9329      9327      9330      9332      9329      9327      9330      9333
      9330      9333      9336      9337      9330      9333      9336      9338
      9330      9333      9336      9339      9331      9330      9333      9334
      9331      9330      9333      9335      9331      9330      9333      9336
      9332      9330      9333      9334      9332      9330      9333      9335
      9332      9330      9333      9336      9333      9336      9339      9340
      9333      9336      9339      9341      9333      9336      9339      9342
      9334      9333      9336      9337      9334      9333      9336      9338
      9334      9333      9336      9339      9335      9333      9336      9337
      9335      9333      9336      9338      9335      9333      9336      9339
      9336      9339      9342      9343      9336      9339      9342      9344
      9337      9336      9339      9340      9337      9336      9339      9341
      9337      9336      9339      9342      9338      9336      9339      9340
      9338      9336      9339      9341      9338      9336      9339      9342
      9339      9342      9344      9345      9339      9342      9344      9346
      9340      9339      9342      9343      9340      9339      9342      9344
      9341      9339      9342      9343      9341      9339      9342      9344
      9342      9344      9346      9347      9342      9344      9346      9348
      9342      9344      9346      9349      9343      9342      9344      9345
      9343      9342      9344      9346      9344      9346      9349      9350
      9344      9346      9349      9351      9344      9346      9349      9352
      9345      9344      9346      9347      9345      9344      9346      9348
      9345      9344      9346      9349      9346      9349      9352      9353
      9346      9349      9352      9354      9346      9349      9352      9355
      9347      9346      9349      9350      9347      9346      9349      9351
      9347      9346      9349      9352      9348      9346      9349      9350
      9348      9346      9349      9351      9348      9346      9349      9352
      9349      9352      9355      9356      9349      9352      9355      9357
      9349      9352      9355      9358      9350      9349      9352      9353
      9350      9349      9352      9354      9350      9349      9352      9355
      9351      9349      9352      9353      9351      9349      9352      9354
      9351      9349      9352      9355      9352      9355      9358      9359
      9352      9355      9358      9360      9352      9355      9358      9361
      9353      9352      9355      9356      9353      9352      9355      9357
      9353      9352      9355      9358      9354      9352      9355      9356
      9354      9352      9355      9357      9354      9352      9355      9358
      9355      9358      9361      9362      9355      9358      9361      9363
      9355      9358      9361      9364      9356      9355      9358      9359
      9356      9355      9358      9360      9356      9355      9358      9361
      9357      9355      9358      9359      9357      9355      9358      9360
      9357      9355      9358      9361      9359      9358      9361      9362
      9359      9358      9361      9363      9359      9358      9361      9364
      9360      9358      9361      9362      9360      9358      9361      9363
      9360      9358      9361      9364      9365      9368      9371      9372
      9365      9368      9371      9373      9365      9368      9371      9374
      9366      9365      9368      9369      9366      9365      9368      9370
      9366      9365      9368      9371      9367      9365      9368      9369
      9367      9365      9368      9370      9367      9365      9368      9371
      9368      9371      9374      9375      9368      9371      9374      9376
      9368      9371      9374      9377      9369      9368      9371      9372
      9369      9368      9371      9373      9369      9368      9371      9374
      9370      9368      9371      9372      9370      9368      9371      9373
      9370      9368      9371      9374      9371      9374      9377      9378
      9371      9374      9377      9379      9371      9374      9377      9380
      9372      9371      9374      9375      9372      9371      9374      9376
      9372      9371      9374      9377      9373      9371      9374      9375
      9373      9371      9374      9376      9373      9371      9374      9377
      9374      9377      9380      9381      9374      9377      9380      9382
      9374      9377      9380      9383      9375      9374      9377      9378
      9375      9374      9377      9379      9375      9374      9377      9380
      9376      9374      9377      9378      9376      9374      9377      9379
      9376      9374      9377      9380      9377      9380      9383      9384
      9377      9380      9383      9385      9377      9380      9383      9386
      9378      9377      9380      9381      9378      9377      9380      9382
      9378      9377      9380      9383      9379      9377      9380      9381
      9379      9377      9380      9382      9379      9377      9380      9383
      9380      9383      9386      9387      9380      9383      9386      9388
      9380      9383      9386      9389      9381      9380      9383      9384
      9381      9380      9383      9385      9381      9380      9383      9386
      9382      9380      9383      9384      9382      9380      9383      9385
      9382      9380      9383      9386      9383      9386      9389      9390
      9383      9386      9389      9391      9383      9386      9389      9392
      9384      9383      9386      9387      9384      9383      9386      9388
      9384      9383      9386      9389      9385      9383      9386      9387
      9385      9383      9386      9388      9385      9383      9386      9389
      9386      9389      9392      9393      9386      9389      9392      9394
      9386      9389      9392      9395      9387      9386      9389      9390
      9387      9386      9389      9391      9387      9386      9389      9392
      9388      9386      9389      9390      9388      9386      9389      9391
      9388      9386      9389      9392      9389      9392      9395      9396
      9389      9392      9395      9397      9389      9392      9395      9398
      9390      9389      9392      9393      9390      9389      9392      9394
      9390      9389      9392      9395      9391      9389      9392      9393
      9391      9389      9392      9394      9391      9389      9392      9395
      9392      9395      9398      9399      9392      9395      9398      9400
      9392      9395      9398      9401      9393      9392      9395      9396
      9393      9392      9395      9397      9393      9392      9395      9398
      9394      9392      9395      9396      9394      9392      9395      9397
      9394      9392      9395      9398      9395      9398      9401      9402
      9395      9398      9401      9403      9395      9398      9401      9404
      9396      9395      9398      9399      9396      9395      9398      9400
      9396      9395      9398      9401      9397      9395      9398      9399
      9397      9395      9398      9400      9397      9395      9398      9401
      9398      9401      9404      9405      9398      9401      9404      9406
      9398      9401      9404      9407      9399      9398      9401      9402
      9399      9398      9401      9403      9399      9398      9401      9404
      9400      9398      9401      9402      9400      9398      9401      9403
      9400      9398      9401      9404      9402      9401      9404      9405
      9402      9401      9404      9406      9402      9401      9404      9407
      9403      9401      9404      9405      9403      9401      9404      9406
      9403      9401      9404      9407      9408      9412      9415      9416
      9408      9412      9415      9417      9408      9412      9415      9422
      9409      9408      9412      9413      9409      9408      9412      9414
      9409      9408      9412      9415      9410      9408      9412      9413
      9410      9408      9412      9414      9410      9408      9412      9415
      9411      9408      9412      9413      9411      9408      9412      9414
      9411      9408      9412      9415      9412      9415      9422      9418
      9413      9412      9415      9416      9413      9412      9415      9417
      9413      9412      9415      9422      9414      9412      9415      9416
      9414      9412      9415      9417      9414      9412      9415      9422
      9415      9422      9418      9419      9415      9422      9418      9420
      9415      9422      9418      9421      9416      9415      9422      9418
      9417      9415      9422      9418      9418      9421      9423      9424
      9418      9421      9423      9425      9418      9421      9423      9426
      9419      9418      9421      9423      9420      9418      9421      9423
      9421      9423      9426      9427      9421      9423      9426      9428
      9421      9423      9426      9434      9422      9418      9421      9423
      9423      9426      9428      9429      9423      9426      9434      9435
      9423      9426      9434      9436      9423      9426      9434      9437
      9424      9423      9426      9427      9424      9423      9426      9428
      9424      9423      9426      9434      9425      9423      9426      9427
      9425      9423      9426      9428      9425      9423      9426      9434
      9426      9428      9429      9430      9426      9428      9429      9431
      9426      9434      9437      9438      9427      9426      9428      9429
      9427      9426      9434      9435      9427      9426      9434      9436
      9427      9426      9434      9437      9428      9426      9434      9435
      9428      9426      9434      9436      9428      9426      9434      9437
      9428      9429      9431      9432      9428      9429      9431      9433
      9428      9429      9431      9443      9429      9428      9426      9434
      9429      9431      9443      9444      9429      9431      9443      9445
      9429      9431      9443      9446      9430      9429      9431      9432
      9430      9429      9431      9433      9430      9429      9431      9443
      9431      9443      9446      9447      9431      9443      9446      9448
      9431      9443      9446      9449      9432      9431      9443      9444
      9432      9431      9443      9445      9432      9431      9443      9446
      9433      9431      9443      9444      9433      9431      9443      9445
      9433      9431      9443      9446      9434      9437      9438      9439
      9434      9437      9438      9440      9435      9434      9437      9438
      9436      9434      9437      9438      9437      9438      9440      9441
      9437      9438      9440      9442      9437      9438      9440      9484
      9438      9440      9484      9485      9438      9440      9484      9486
      9438      9440      9484      9487      9439      9438      9440      9441
      9439      9438      9440      9442      9439      9438      9440      9484
      9440      9484      9487      9488      9440      9484      9487      9489
      9440      9484      9487      9490      9441      9440      9484      9485
      9441      9440      9484      9486      9441      9440      9484      9487
      9442      9440      9484      9485      9442      9440      9484      9486
      9442      9440      9484      9487      9443      9446      9449      9450
      9443      9446      9449      9451      9443      9446      9449      9452
      9444      9443      9446      9447      9444      9443      9446      9448
      9444      9443      9446      9449      9445      9443      9446      9447
      9445      9443      9446      9448      9445      9443      9446      9449
      9446      9449      9452      9453      9446      9449      9452      9454
      9446      9449      9452      9455      9447      9446      9449      9450
      9447      9446      9449      9451      9447      9446      9449      9452
      9448      9446      9449      9450      9448      9446      9449      9451
      9448      9446      9449      9452      9449      9452      9455      9456
      9449      9452      9455      9457      9449      9452      9455      9458
      9450      9449      9452      9453      9450      9449      9452      9454
      9450      9449      9452      9455      9451      9449      9452      9453
      9451      9449      9452      9454      9451      9449      9452      9455
      9452      9455      9458      9459      9452      9455      9458      9460
      9452      9455      9458      9461      9453      9452      9455      9456
      9453      9452      9455      9457      9453      9452      9455      9458
      9454      9452      9455      9456      9454      9452      9455      9457
      9454      9452      9455      9458      9455      9458      9461      9462
      9455      9458      9461      9463      9456      9455      9458      9459
      9456      9455      9458      9460      9456      9455      9458      9461
      9457      9455      9458      9459      9457      9455      9458      9460
      9457      9455      9458      9461      9458      9461      9463      9464
      9458      9461      9463      9465      9459      9458      9461      9462
      9459      9458      9461      9463      9460      9458      9461      9462
      9460      9458      9461      9463      9461      9463      9465      9466
      9461      9463      9465      9467      9461      9463      9465      9468
      9462      9461      9463      9464      9462      9461      9463      9465
      9463      9465      9468      9469      9463      9465      9468      9470
      9463      9465      9468      9471      9464      9463      9465      9466
      9464      9463      9465      9467      9464      9463      9465      9468
      9465      9468      9471      9472      9465      9468      9471      9473
      9465      9468      9471      9474      9466      9465      9468      9469
      9466      9465      9468      9470      9466      9465      9468      9471
      9467      9465      9468      9469      9467      9465      9468      9470
      9467      9465      9468      9471      9468      9471      9474      9475
      9468      9471      9474      9476      9468      9471      9474      9477
      9469      9468      9471      9472      9469      9468      9471      9473
      9469      9468      9471      9474      9470      9468      9471      9472
      9470      9468      9471      9473      9470      9468      9471      9474
      9471      9474      9477      9478      9471      9474      9477      9479
      9471      9474      9477      9480      9472      9471      9474      9475
      9472      9471      9474      9476      9472      9471      9474      9477
      9473      9471      9474      9475      9473      9471      9474      9476
      9473      9471      9474      9477      9474      9477      9480      9481
      9474      9477      9480      9482      9474      9477      9480      9483
      9475      9474      9477      9478      9475      9474      9477      9479
      9475      9474      9477      9480      9476      9474      9477      9478
      9476      9474      9477      9479      9476      9474      9477      9480
      9478      9477      9480      9481      9478      9477      9480      9482
      9478      9477      9480      9483      9479      9477      9480      9481
      9479      9477      9480      9482      9479      9477      9480      9483
      9484      9487      9490      9491      9484      9487      9490      9492
      9484      9487      9490      9493      9485      9484      9487      9488
      9485      9484      9487      9489      9485      9484      9487      9490
      9486      9484      9487      9488      9486      9484      9487      9489
      9486      9484      9487      9490      9487      9490      9493      9494
      9487      9490      9493      9495      9487      9490      9493      9496
      9488      9487      9490      9491      9488      9487      9490      9492
      9488      9487      9490      9493      9489      9487      9490      9491
      9489      9487      9490      9492      9489      9487      9490      9493
      9490      9493      9496      9497      9490      9493      9496      9498
      9490      9493      9496      9499      9491      9490      9493      9494
      9491      9490      9493      9495      9491      9490      9493      9496
      9492      9490      9493      9494      9492      9490      9493      9495
      9492      9490      9493      9496      9493      9496      9499      9500
      9493      9496      9499      9501      9493      9496      9499      9502
      9494      9493      9496      9497      9494      9493      9496      9498
      9494      9493      9496      9499      9495      9493      9496      9497
      9495      9493      9496      9498      9495      9493      9496      9499
      9496      9499      9502      9503      9496      9499      9502      9504
      9497      9496      9499      9500      9497      9496      9499      9501
      9497      9496      9499      9502      9498      9496      9499      9500
      9498      9496      9499      9501      9498      9496      9499      9502
      9499      9502      9504      9505      9499      9502      9504      9506
      9500      9499      9502      9503      9500      9499      9502      9504
      9501      9499      9502      9503      9501      9499      9502      9504
      9502      9504      9506      9507      9502      9504      9506      9508
      9502      9504      9506      9509      9503      9502      9504      9505
      9503      9502      9504      9506      9504      9506      9509      9510
      9504      9506      9509      9511      9504      9506      9509      9512
      9505      9504      9506      9507      9505      9504      9506      9508
      9505      9504      9506      9509      9506      9509      9512      9513
      9506      9509      9512      9514      9506      9509      9512      9515
      9507      9506      9509      9510      9507      9506      9509      9511
      9507      9506      9509      9512      9508      9506      9509      9510
      9508      9506      9509      9511      9508      9506      9509      9512
      9509      9512      9515      9516      9509      9512      9515      9517
      9509      9512      9515      9518      9510      9509      9512      9513
      9510      9509      9512      9514      9510      9509      9512      9515
      9511      9509      9512      9513      9511      9509      9512      9514
      9511      9509      9512      9515      9512      9515      9518      9519
      9512      9515      9518      9520      9512      9515      9518      9521
      9513      9512      9515      9516      9513      9512      9515      9517
      9513      9512      9515      9518      9514      9512      9515      9516
      9514      9512      9515      9517      9514      9512      9515      9518
      9515      9518      9521      9522      9515      9518      9521      9523
      9515      9518      9521      9524      9516      9515      9518      9519
      9516      9515      9518      9520      9516      9515      9518      9521
      9517      9515      9518      9519      9517      9515      9518      9520
      9517      9515      9518      9521      9518      9521      9524      9525
      9518      9521      9524      9526      9518      9521      9524      9527
      9519      9518      9521      9522      9519      9518      9521      9523
      9519      9518      9521      9524      9520      9518      9521      9522
      9520      9518      9521      9523      9520      9518      9521      9524
      9521      9524      9527      9528      9521      9524      9527      9529
      9521      9524      9527      9530      9522      9521      9524      9525
      9522      9521      9524      9526      9522      9521      9524      9527
      9523      9521      9524      9525      9523      9521      9524      9526
      9523      9521      9524      9527      9525      9524      9527      9528
      9525      9524      9527      9529      9525      9524      9527      9530
      9526      9524      9527      9528      9526      9524      9527      9529
      9526      9524      9527      9530      9531      9535      9538      9539
      9531      9535      9538      9540      9531      9535      9538      9545
      9532      9531      9535      9536      9532      9531      9535      9537
      9532      9531      9535      9538      9533      9531      9535      9536
      9533      9531      9535      9537      9533      9531      9535      9538
      9534      9531      9535      9536      9534      9531      9535      9537
      9534      9531      9535      9538      9535      9538      9545      9541
      9536      9535      9538      9539      9536      9535      9538      9540
      9536      9535      9538      9545      9537      9535      9538      9539
      9537      9535      9538      9540      9537      9535      9538      9545
      9538      9545      9541      9542      9538      9545      9541      9543
      9538      9545      9541      9544      9539      9538      9545      9541
      9540      9538      9545      9541      9541      9544      9546      9547
      9541      9544      9546      9548      9541      9544      9546      9549
      9542      9541      9544      9546      9543      9541      9544      9546
      9544      9546      9549      9550      9544      9546      9549      9551
      9544      9546      9549      9557      9545      9541      9544      9546
      9546      9549      9551      9552      9546      9549      9557      9558
      9546      9549      9557      9559      9546      9549      9557      9560
      9547      9546      9549      9550      9547      9546      9549      9551
      9547      9546      9549      9557      9548      9546      9549      9550
      9548      9546      9549      9551      9548      9546      9549      9557
      9549      9551      9552      9553      9549      9551      9552      9554
      9549      9557      9560      9561      9550      9549      9551      9552
      9550      9549      9557      9558      9550      9549      9557      9559
      9550      9549      9557      9560      9551      9549      9557      9558
      9551      9549      9557      9559      9551      9549      9557      9560
      9551      9552      9554      9555      9551      9552      9554      9556
      9551      9552      9554      9566      9552      9551      9549      9557
      9552      9554      9566      9567      9552      9554      9566      9568
      9552      9554      9566      9569      9553      9552      9554      9555
      9553      9552      9554      9556      9553      9552      9554      9566
      9554      9566      9569      9570      9554      9566      9569      9571
      9554      9566      9569      9572      9555      9554      9566      9567
      9555      9554      9566      9568      9555      9554      9566      9569
      9556      9554      9566      9567      9556      9554      9566      9568
      9556      9554      9566      9569      9557      9560      9561      9562
      9557      9560      9561      9563      9558      9557      9560      9561
      9559      9557      9560      9561      9560      9561      9563      9564
      9560      9561      9563      9565      9560      9561      9563      9610
      9561      9563      9610      9611      9561      9563      9610      9612
      9561      9563      9610      9613      9562      9561      9563      9564
      9562      9561      9563      9565      9562      9561      9563      9610
      9563      9610      9613      9614      9563      9610      9613      9615
      9563      9610      9613      9616      9564      9563      9610      9611
      9564      9563      9610      9612      9564      9563      9610      9613
      9565      9563      9610      9611      9565      9563      9610      9612
      9565      9563      9610      9613      9566      9569      9572      9573
      9566      9569      9572      9574      9566      9569      9572      9575
      9567      9566      9569      9570      9567      9566      9569      9571
      9567      9566      9569      9572      9568      9566      9569      9570
      9568      9566      9569      9571      9568      9566      9569      9572
      9569      9572      9575      9576      9569      9572      9575      9577
      9569      9572      9575      9578      9570      9569      9572      9573
      9570      9569      9572      9574      9570      9569      9572      9575
      9571      9569      9572      9573      9571      9569      9572      9574
      9571      9569      9572      9575      9572      9575      9578      9579
      9572      9575      9578      9580      9572      9575      9578      9581
      9573      9572      9575      9576      9573      9572      9575      9577
      9573      9572      9575      9578      9574      9572      9575      9576
      9574      9572      9575      9577      9574      9572      9575      9578
      9575      9578      9581      9582      9575      9578      9581      9583
      9575      9578      9581      9584      9576      9575      9578      9579
      9576      9575      9578      9580      9576      9575      9578      9581
      9577      9575      9578      9579      9577      9575      9578      9580
      9577      9575      9578      9581      9578      9581      9584      9585
      9578      9581      9584      9586      9578      9581      9584      9589
      9579      9578      9581      9582      9579      9578      9581      9583
      9579      9578      9581      9584      9580      9578      9581      9582
      9580      9578      9581      9583      9580      9578      9581      9584
      9581      9584      9586      9587      9581      9584      9586      9588
      9581      9584      9586      9589      9581      9584      9589      9586
      9581      9584      9589      9590      9581      9584      9589      9591
      9582      9581      9584      9585      9582      9581      9584      9586
      9582      9581      9584      9589      9583      9581      9584      9585
      9583      9581      9584      9586      9583      9581      9584      9589
      9584      9586      9589      9590      9584      9586      9589      9591
      9584      9589      9586      9587      9584      9589      9586      9588
      9584      9589      9591      9592      9584      9589      9591      9593
      9584      9589      9591      9594      9585      9584      9586      9587
      9585      9584      9586      9588      9585      9584      9586      9589
      9585      9584      9589      9586      9585      9584      9589      9590
      9585      9584      9589      9591      9586      9584      9589      9590
      9586      9584      9589      9591      9586      9589      9591      9592
      9586      9589      9591      9593      9586      9589      9591      9594
      9587      9586      9584      9589      9587      9586      9589      9590
      9587      9586      9589      9591      9588      9586      9584      9589
      9588      9586      9589      9590      9588      9586      9589      9591
      9589      9591      9594      9595      9589      9591      9594      9596
      9589      9591      9594      9597      9590      9589      9591      9592
      9590      9589      9591      9593      9590      9589      9591      9594
      9591      9594      9597      9598      9591      9594      9597      9599
      9591      9594      9597      9600      9592      9591      9594      9595
      9592      9591      9594      9596      9592      9591      9594      9597
      9593      9591      9594      9595      9593      9591      9594      9596
      9593      9591      9594      9597      9594      9597      9600      9601
      9594      9597      9600      9602      9594      9597      9600      9603
      9595      9594      9597      9598      9595      9594      9597      9599
      9595      9594      9597      9600      9596      9594      9597      9598
      9596      9594      9597      9599      9596      9594      9597      9600
      9597      9600      9603      9604      9597      9600      9603      9605
      9597      9600      9603      9606      9598      9597      9600      9601
      9598      9597      9600      9602      9598      9597      9600      9603
      9599      9597      9600      9601      9599      9597      9600      9602
      9599      9597      9600      9603      9600      9603      9606      9607
      9600      9603      9606      9608      9600      9603      9606      9609
      9601      9600      9603      9604      9601      9600      9603      9605
      9601      9600      9603      9606      9602      9600      9603      9604
      9602      9600      9603      9605      9602      9600      9603      9606
      9604      9603      9606      9607      9604      9603      9606      9608
      9604      9603      9606      9609      9605      9603      9606      9607
      9605      9603      9606      9608      9605      9603      9606      9609
      9610      9613      9616      9617      9610      9613      9616      9618
      9610      9613      9616      9619      9611      9610      9613      9614
      9611      9610      9613      9615      9611      9610      9613      9616
      9612      9610      9613      9614      9612      9610      9613      9615
      9612      9610      9613      9616      9613      9616      9619      9620
      9613      9616      9619      9621      9613      9616      9619      9622
      9614      9613      9616      9617      9614      9613      9616      9618
      9614      9613      9616      9619      9615      9613      9616      9617
      9615      9613      9616      9618      9615      9613      9616      9619
      9616      9619      9622      9623      9616      9619      9622      9624
      9616      9619      9622      9625      9617      9616      9619      9620
      9617      9616      9619      9621      9617      9616      9619      9622
      9618      9616      9619      9620      9618      9616      9619      9621
      9618      9616      9619      9622      9619      9622      9625      9626
      9619      9622      9625      9627      9619      9622      9625      9628
      9620      9619      9622      9623      9620      9619      9622      9624
      9620      9619      9622      9625      9621      9619      9622      9623
      9621      9619      9622      9624      9621      9619      9622      9625
      9622      9625      9628      9629      9622      9625      9628      9630
      9622      9625      9628      9631      9623      9622      9625      9626
      9623      9622      9625      9627      9623      9622      9625      9628
      9624      9622      9625      9626      9624      9622      9625      9627
      9624      9622      9625      9628      9625      9628      9631      9632
      9625      9628      9631      9633      9625      9628      9631      9634
      9626      9625      9628      9629      9626      9625      9628      9630
      9626      9625      9628      9631      9627      9625      9628      9629
      9627      9625      9628      9630      9627      9625      9628      9631
      9628      9631      9634      9635      9628      9631      9634      9636
      9628      9631      9634      9637      9629      9628      9631      9632
      9629      9628      9631      9633      9629      9628      9631      9634
      9630      9628      9631      9632      9630      9628      9631      9633
      9630      9628      9631      9634      9631      9634      9637      9638
      9631      9634      9637      9639      9631      9634      9637      9640
      9632      9631      9634      9635      9632      9631      9634      9636
      9632      9631      9634      9637      9633      9631      9634      9635
      9633      9631      9634      9636      9633      9631      9634      9637
      9634      9637      9640      9641      9634      9637      9640      9642
      9634      9637      9640      9643      9635      9634      9637      9638
      9635      9634      9637      9639      9635      9634      9637      9640
      9636      9634      9637      9638      9636      9634      9637      9639
      9636      9634      9637      9640      9637      9640      9643      9644
      9637      9640      9643      9645      9637      9640      9643      9646
      9638      9637      9640      9641      9638      9637      9640      9642
      9638      9637      9640      9643      9639      9637      9640      9641
      9639      9637      9640      9642      9639      9637      9640      9643
      9640      9643      9646      9647      9640      9643      9646      9648
      9640      9643      9646      9649      9641      9640      9643      9644
      9641      9640      9643      9645      9641      9640      9643      9646
      9642      9640      9643      9644      9642      9640      9643      9645
      9642      9640      9643      9646      9643      9646      9649      9650
      9643      9646      9649      9651      9643      9646      9649      9652
      9644      9643      9646      9647      9644      9643      9646      9648
      9644      9643      9646      9649      9645      9643      9646      9647
      9645      9643      9646      9648      9645      9643      9646      9649
      9647      9646      9649      9650      9647      9646      9649      9651
      9647      9646      9649      9652      9648      9646      9649      9650
      9648      9646      9649      9651      9648      9646      9649      9652
      9653      9657      9660      9661      9653      9657      9660      9662
      9653      9657      9660      9667      9654      9653      9657      9658
      9654      9653      9657      9659      9654      9653      9657      9660
      9655      9653      9657      9658      9655      9653      9657      9659
      9655      9653      9657      9660      9656      9653      9657      9658
      9656      9653      9657      9659      9656      9653      9657      9660
      9657      9660      9667      9663      9658      9657      9660      9661
      9658      9657      9660      9662      9658      9657      9660      9667
      9659      9657      9660      9661      9659      9657      9660      9662
      9659      9657      9660      9667      9660      9667      9663      9664
      9660      9667      9663      9665      9660      9667      9663      9666
      9661      9660      9667      9663      9662      9660      9667      9663
      9663      9666      9668      9669      9663      9666      9668      9670
      9663      9666      9668      9671      9664      9663      9666      9668
      9665      9663      9666      9668      9666      9668      9671      9672
      9666      9668      9671      9673      9666      9668      9671      9679
      9667      9663      9666      9668      9668      9671      9673      9674
      9668      9671      9679      9680      9668      9671      9679      9681
      9668      9671      9679      9682      9669      9668      9671      9672
      9669      9668      9671      9673      9669      9668      9671      9679
      9670      9668      9671      9672      9670      9668      9671      9673
      9670      9668      9671      9679      9671      9673      9674      9675
      9671      9673      9674      9676      9671      9679      9682      9683
      9672      9671      9673      9674      9672      9671      9679      9680
      9672      9671      9679      9681      9672      9671      9679      9682
      9673      9671      9679      9680      9673      9671      9679      9681
      9673      9671      9679      9682      9673      9674      9676      9677
      9673      9674      9676      9678      9673      9674      9676      9688
      9674      9673      9671      9679      9674      9676      9688      9689
      9674      9676      9688      9690      9674      9676      9688      9691
      9675      9674      9676      9677      9675      9674      9676      9678
      9675      9674      9676      9688      9676      9688      9691      9692
      9676      9688      9691      9693      9676      9688      9691      9694
      9677      9676      9688      9689      9677      9676      9688      9690
      9677      9676      9688      9691      9678      9676      9688      9689
      9678      9676      9688      9690      9678      9676      9688      9691
      9679      9682      9683      9684      9679      9682      9683      9685
      9680      9679      9682      9683      9681      9679      9682      9683
      9682      9683      9685      9686      9682      9683      9685      9687
      9682      9683      9685      9732      9683      9685      9732      9733
      9683      9685      9732      9734      9683      9685      9732      9735
      9684      9683      9685      9686      9684      9683      9685      9687
      9684      9683      9685      9732      9685      9732      9735      9736
      9685      9732      9735      9737      9685      9732      9735      9738
      9686      9685      9732      9733      9686      9685      9732      9734
      9686      9685      9732      9735      9687      9685      9732      9733
      9687      9685      9732      9734      9687      9685      9732      9735
      9688      9691      9694      9695      9688      9691      9694      9696
      9688      9691      9694      9697      9689      9688      9691      9692
      9689      9688      9691      9693      9689      9688      9691      9694
      9690      9688      9691      9692      9690      9688      9691      9693
      9690      9688      9691      9694      9691      9694      9697      9698
      9691      9694      9697      9699      9691      9694      9697      9700
      9692      9691      9694      9695      9692      9691      9694      9696
      9692      9691      9694      9697      9693      9691      9694      9695
      9693      9691      9694      9696      9693      9691      9694      9697
      9694      9697      9700      9701      9694      9697      9700      9702
      9694      9697      9700      9703      9695      9694      9697      9698
      9695      9694      9697      9699      9695      9694      9697      9700
      9696      9694      9697      9698      9696      9694      9697      9699
      9696      9694      9697      9700      9697      9700      9703      9704
      9697      9700      9703      9705      9697      9700      9703      9706
      9698      9697      9700      9701      9698      9697      9700      9702
      9698      9697      9700      9703      9699      9697      9700      9701
      9699      9697      9700      9702      9699      9697      9700      9703
      9700      9703      9706      9707      9700      9703      9706      9708
      9700      9703      9706      9711      9701      9700      9703      9704
      9701      9700      9703      9705      9701      9700      9703      9706
      9702      9700      9703      9704      9702      9700      9703      9705
      9702      9700      9703      9706      9703      9706      9708      9709
      9703      9706      9708      9710      9703      9706      9708      9711
      9703      9706      9711      9708      9703      9706      9711      9712
      9703      9706      9711      9713      9704      9703      9706      9707
      9704      9703      9706      9708      9704      9703      9706      9711
      9705      9703      9706      9707      9705      9703      9706      9708
      9705      9703      9706      9711      9706      9708      9711      9712
      9706      9708      9711      9713      9706      9711      9708      9709
      9706      9711      9708      9710      9706      9711      9713      9714
      9706      9711      9713      9715      9706      9711      9713      9716
      9707      9706      9708      9709      9707      9706      9708      9710
      9707      9706      9708      9711      9707      9706      9711      9708
      9707      9706      9711      9712      9707      9706      9711      9713
      9708      9706      9711      9712      9708      9706      9711      9713
      9708      9711      9713      9714      9708      9711      9713      9715
      9708      9711      9713      9716      9709      9708      9706      9711
      9709      9708      9711      9712      9709      9708      9711      9713
      9710      9708      9706      9711      9710      9708      9711      9712
      9710      9708      9711      9713      9711      9713      9716      9717
      9711      9713      9716      9718      9711      9713      9716      9719
      9712      9711      9713      9714      9712      9711      9713      9715
      9712      9711      9713      9716      9713      9716      9719      9720
      9713      9716      9719      9721      9713      9716      9719      9722
      9714      9713      9716      9717      9714      9713      9716      9718
      9714      9713      9716      9719      9715      9713      9716      9717
      9715      9713      9716      9718      9715      9713      9716      9719
      9716      9719      9722      9723      9716      9719      9722      9724
      9716      9719      9722      9725      9717      9716      9719      9720
      9717      9716      9719      9721      9717      9716      9719      9722
      9718      9716      9719      9720      9718      9716      9719      9721
      9718      9716      9719      9722      9719      9722      9725      9726
      9719      9722      9725      9727      9719      9722      9725      9728
      9720      9719      9722      9723      9720      9719      9722      9724
      9720      9719      9722      9725      9721      9719      9722      9723
      9721      9719      9722      9724      9721      9719      9722      9725
      9722      9725      9728      9729      9722      9725      9728      9730
      9722      9725      9728      9731      9723      9722      9725      9726
      9723      9722      9725      9727      9723      9722      9725      9728
      9724      9722      9725      9726      9724      9722      9725      9727
      9724      9722      9725      9728      9726      9725      9728      9729
      9726      9725      9728      9730      9726      9725      9728      9731
      9727      9725      9728      9729      9727      9725      9728      9730
      9727      9725      9728      9731      9732      9735      9738      9739
      9732      9735      9738      9740      9732      9735      9738      9741
      9733      9732      9735      9736      9733      9732      9735      9737
      9733      9732      9735      9738      9734      9732      9735      9736
      9734      9732      9735      9737      9734      9732      9735      9738
      9735      9738      9741      9742      9735      9738      9741      9743
      9735      9738      9741      9744      9736      9735      9738      9739
      9736      9735      9738      9740      9736      9735      9738      9741
      9737      9735      9738      9739      9737      9735      9738      9740
      9737      9735      9738      9741      9738      9741      9744      9745
      9738      9741      9744      9746      9738      9741      9744      9747
      9739      9738      9741      9742      9739      9738      9741      9743
      9739      9738      9741      9744      9740      9738      9741      9742
      9740      9738      9741      9743      9740      9738      9741      9744
      9741      9744      9747      9748      9741      9744      9747      9749
      9741      9744      9747      9750      9742      9741      9744      9745
      9742      9741      9744      9746      9742      9741      9744      9747
      9743      9741      9744      9745      9743      9741      9744      9746
      9743      9741      9744      9747      9744      9747      9750      9751
      9744      9747      9750      9752      9744      9747      9750      9753
      9745      9744      9747      9748      9745      9744      9747      9749
      9745      9744      9747      9750      9746      9744      9747      9748
      9746      9744      9747      9749      9746      9744      9747      9750
      9747      9750      9753      9754      9747      9750      9753      9755
      9747      9750      9753      9756      9748      9747      9750      9751
      9748      9747      9750      9752      9748      9747      9750      9753
      9749      9747      9750      9751      9749      9747      9750      9752
      9749      9747      9750      9753      9750      9753      9756      9757
      9750      9753      9756      9758      9750      9753      9756      9759
      9751      9750      9753      9754      9751      9750      9753      9755
      9751      9750      9753      9756      9752      9750      9753      9754
      9752      9750      9753      9755      9752      9750      9753      9756
      9753      9756      9759      9760      9753      9756      9759      9761
      9753      9756      9759      9762      9754      9753      9756      9757
      9754      9753      9756      9758      9754      9753      9756      9759
      9755      9753      9756      9757      9755      9753      9756      9758
      9755      9753      9756      9759      9756      9759      9762      9763
      9756      9759      9762      9764      9756      9759      9762      9765
      9757      9756      9759      9760      9757      9756      9759      9761
      9757      9756      9759      9762      9758      9756      9759      9760
      9758      9756      9759      9761      9758      9756      9759      9762
      9759      9762      9765      9766      9759      9762      9765      9767
      9759      9762      9765      9768      9760      9759      9762      9763
      9760      9759      9762      9764      9760      9759      9762      9765
      9761      9759      9762      9763      9761      9759      9762      9764
      9761      9759      9762      9765      9762      9765      9768      9769
      9762      9765      9768      9770      9762      9765      9768      9771
      9763      9762      9765      9766      9763      9762      9765      9767
      9763      9762      9765      9768      9764      9762      9765      9766
      9764      9762      9765      9767      9764      9762      9765      9768
      9765      9768      9771      9772      9765      9768      9771      9773
      9765      9768      9771      9774      9766      9765      9768      9769
      9766      9765      9768      9770      9766      9765      9768      9771
      9767      9765      9768      9769      9767      9765      9768      9770
      9767      9765      9768      9771      9769      9768      9771      9772
      9769      9768      9771      9773      9769      9768      9771      9774
      9770      9768      9771      9772      9770      9768      9771      9773
      9770      9768      9771      9774      9775      9779      9782      9783
      9775      9779      9782      9784      9775      9779      9782      9789
      9776      9775      9779      9780      9776      9775      9779      9781
      9776      9775      9779      9782      9777      9775      9779      9780
      9777      9775      9779      9781      9777      9775      9779      9782
      9778      9775      9779      9780      9778      9775      9779      9781
      9778      9775      9779      9782      9779      9782      9789      9785
      9780      9779      9782      9783      9780      9779      9782      9784
      9780      9779      9782      9789      9781      9779      9782      9783
      9781      9779      9782      9784      9781      9779      9782      9789
      9782      9789      9785      9786      9782      9789      9785      9787
      9782      9789      9785      9788      9783      9782      9789      9785
      9784      9782      9789      9785      9785      9788      9790      9791
      9785      9788      9790      9792      9785      9788      9790      9793
      9786      9785      9788      9790      9787      9785      9788      9790
      9788      9790      9793      9794      9788      9790      9793      9795
      9788      9790      9793      9801      9789      9785      9788      9790
      9790      9793      9795      9796      9790      9793      9801      9802
      9790      9793      9801      9803      9790      9793      9801      9804
      9791      9790      9793      9794      9791      9790      9793      9795
      9791      9790      9793      9801      9792      9790      9793      9794
      9792      9790      9793      9795      9792      9790      9793      9801
      9793      9795      9796      9797      9793      9795      9796      9798
      9793      9801      9804      9805      9794      9793      9795      9796
      9794      9793      9801      9802      9794      9793      9801      9803
      9794      9793      9801      9804      9795      9793      9801      9802
      9795      9793      9801      9803      9795      9793      9801      9804
      9795      9796      9798      9799      9795      9796      9798      9800
      9795      9796      9798      9810      9796      9795      9793      9801
      9796      9798      9810      9811      9796      9798      9810      9812
      9796      9798      9810      9813      9797      9796      9798      9799
      9797      9796      9798      9800      9797      9796      9798      9810
      9798      9810      9813      9814      9798      9810      9813      9815
      9798      9810      9813      9816      9799      9798      9810      9811
      9799      9798      9810      9812      9799      9798      9810      9813
      9800      9798      9810      9811      9800      9798      9810      9812
      9800      9798      9810      9813      9801      9804      9805      9806
      9801      9804      9805      9807      9802      9801      9804      9805
      9803      9801      9804      9805      9804      9805      9807      9808
      9804      9805      9807      9809      9804      9805      9807      9857
      9805      9807      9857      9858      9805      9807      9857      9859
      9805      9807      9857      9860      9806      9805      9807      9808
      9806      9805      9807      9809      9806      9805      9807      9857
      9807      9857      9860      9861      9807      9857      9860      9862
      9807      9857      9860      9863      9808      9807      9857      9858
      9808      9807      9857      9859      9808      9807      9857      9860
      9809      9807      9857      9858      9809      9807      9857      9859
      9809      9807      9857      9860      9810      9813      9816      9817
      9810      9813      9816      9818      9810      9813      9816      9819
      9811      9810      9813      9814      9811      9810      9813      9815
      9811      9810      9813      9816      9812      9810      9813      9814
      9812      9810      9813      9815      9812      9810      9813      9816
      9813      9816      9819      9820      9813      9816      9819      9821
      9813      9816      9819      9822      9814      9813      9816      9817
      9814      9813      9816      9818      9814      9813      9816      9819
      9815      9813      9816      9817      9815      9813      9816      9818
      9815      9813      9816      9819      9816      9819      9822      9823
      9816      9819      9822      9824      9816      9819      9822      9825
      9817      9816      9819      9820      9817      9816      9819      9821
      9817      9816      9819      9822      9818      9816      9819      9820
      9818      9816      9819      9821      9818      9816      9819      9822
      9819      9822      9825      9826      9819      9822      9825      9827
      9819      9822      9825      9828      9820      9819      9822      9823
      9820      9819      9822      9824      9820      9819      9822      9825
      9821      9819      9822      9823      9821      9819      9822      9824
      9821      9819      9822      9825      9822      9825      9828      9829
      9822      9825      9828      9830      9823      9822      9825      9826
      9823      9822      9825      9827      9823      9822      9825      9828
      9824      9822      9825      9826      9824      9822      9825      9827
      9824      9822      9825      9828      9825      9828      9830      9831
      9825      9828      9830      9832      9826      9825      9828      9829
      9826      9825      9828      9830      9827      9825      9828      9829
      9827      9825      9828      9830      9828      9830      9832      9833
      9828      9830      9832      9834      9828      9830      9832      9835
      9829      9828      9830      9831      9829      9828      9830      9832
      9830      9832      9835      9836      9830      9832      9835      9837
      9830      9832      9835      9838      9831      9830      9832      9833
      9831      9830      9832      9834      9831      9830      9832      9835
      9832      9835      9838      9839      9832      9835      9838      9840
      9832      9835      9838      9841      9833      9832      9835      9836
      9833      9832      9835      9837      9833      9832      9835      9838
      9834      9832      9835      9836      9834      9832      9835      9837
      9834      9832      9835      9838      9835      9838      9841      9842
      9835      9838      9841      9843      9835      9838      9841      9844
      9836      9835      9838      9839      9836      9835      9838      9840
      9836      9835      9838      9841      9837      9835      9838      9839
      9837      9835      9838      9840      9837      9835      9838      9841
      9838      9841      9844      9845      9838      9841      9844      9846
      9838      9841      9844      9847      9839      9838      9841      9842
      9839      9838      9841      9843      9839      9838      9841      9844
      9840      9838      9841      9842      9840      9838      9841      9843
      9840      9838      9841      9844      9841      9844      9847      9848
      9841      9844      9847      9849      9841      9844      9847      9850
      9842      9841      9844      9845      9842      9841      9844      9846
      9842      9841      9844      9847      9843      9841      9844      9845
      9843      9841      9844      9846      9843      9841      9844      9847
      9844      9847      9850      9851      9844      9847      9850      9852
      9844      9847      9850      9853      9845      9844      9847      9848
      9845      9844      9847      9849      9845      9844      9847      9850
      9846      9844      9847      9848      9846      9844      9847      9849
      9846      9844      9847      9850      9847      9850      9853      9854
      9847      9850      9853      9855      9847      9850      9853      9856
      9848      9847      9850      9851      9848      9847      9850      9852
      9848      9847      9850      9853      9849      9847      9850      9851
      9849      9847      9850      9852      9849      9847      9850      9853
      9851      9850      9853      9854      9851      9850      9853      9855
      9851      9850      9853      9856      9852      9850      9853      9854
      9852      9850      9853      9855      9852      9850      9853      9856
      9857      9860      9863      9864      9857      9860      9863      9865
      9857      9860      9863      9866      9858      9857      9860      9861
      9858      9857      9860      9862      9858      9857      9860      9863
      9859      9857      9860      9861      9859      9857      9860      9862
      9859      9857      9860      9863      9860      9863      9866      9867
      9860      9863      9866      9868      9860      9863      9866      9869
      9861      9860      9863      9864      9861      9860      9863      9865
      9861      9860      9863      9866      9862      9860      9863      9864
      9862      9860      9863      9865      9862      9860      9863      9866
      9863      9866      9869      9870      9863      9866      9869      9871
      9863      9866      9869      9872      9864      9863      9866      9867
      9864      9863      9866      9868      9864      9863      9866      9869
      9865      9863      9866      9867      9865      9863      9866      9868
      9865      9863      9866      9869      9866      9869      9872      9873
      9866      9869      9872      9874      9866      9869      9872      9875
      9867      9866      9869      9870      9867      9866      9869      9871
      9867      9866      9869      9872      9868      9866      9869      9870
      9868      9866      9869      9871      9868      9866      9869      9872
      9869      9872      9875      9876      9869      9872      9875      9877
      9869      9872      9875      9878      9870      9869      9872      9873
      9870      9869      9872      9874      9870      9869      9872      9875
      9871      9869      9872      9873      9871      9869      9872      9874
      9871      9869      9872      9875      9872      9875      9878      9879
      9872      9875      9878      9880      9872      9875      9878      9881
      9873      9872      9875      9876      9873      9872      9875      9877
      9873      9872      9875      9878      9874      9872      9875      9876
      9874      9872      9875      9877      9874      9872      9875      9878
      9875      9878      9881      9882      9875      9878      9881      9883
      9875      9878      9881      9884      9876      9875      9878      9879
      9876      9875      9878      9880      9876      9875      9878      9881
      9877      9875      9878      9879      9877      9875      9878      9880
      9877      9875      9878      9881      9878      9881      9884      9885
      9878      9881      9884      9886      9878      9881      9884      9887
      9879      9878      9881      9882      9879      9878      9881      9883
      9879      9878      9881      9884      9880      9878      9881      9882
      9880      9878      9881      9883      9880      9878      9881      9884
      9881      9884      9887      9888      9881      9884      9887      9889
      9881      9884      9887      9890      9882      9881      9884      9885
      9882      9881      9884      9886      9882      9881      9884      9887
      9883      9881      9884      9885      9883      9881      9884      9886
      9883      9881      9884      9887      9884      9887      9890      9891
      9884      9887      9890      9892      9884      9887      9890      9893
      9885      9884      9887      9888      9885      9884      9887      9889
      9885      9884      9887      9890      9886      9884      9887      9888
      9886      9884      9887      9889      9886      9884      9887      9890
      9887      9890      9893      9894      9887      9890      9893      9895
      9887      9890      9893      9896      9888      9887      9890      9891
      9888      9887      9890      9892      9888      9887      9890      9893
      9889      9887      9890      9891      9889      9887      9890      9892
      9889      9887      9890      9893      9890      9893      9896      9897
      9890      9893      9896      9898      9890      9893      9896      9899
      9891      9890      9893      9894      9891      9890      9893      9895
      9891      9890      9893      9896      9892      9890      9893      9894
      9892      9890      9893      9895      9892      9890      9893      9896
      9894      9893      9896      9897      9894      9893      9896      9898
      9894      9893      9896      9899      9895      9893      9896      9897
      9895      9893      9896      9898      9895      9893      9896      9899
      9900      9904      9907      9908      9900      9904      9907      9909
      9900      9904      9907      9914      9901      9900      9904      9905
      9901      9900      9904      9906      9901      9900      9904      9907
      9902      9900      9904      9905      9902      9900      9904      9906
      9902      9900      9904      9907      9903      9900      9904      9905
      9903      9900      9904      9906      9903      9900      9904      9907
      9904      9907      9914      9910      9905      9904      9907      9908
      9905      9904      9907      9909      9905      9904      9907      9914
      9906      9904      9907      9908      9906      9904      9907      9909
      9906      9904      9907      9914      9907      9914      9910      9911
      9907      9914      9910      9912      9907      9914      9910      9913
      9908      9907      9914      9910      9909      9907      9914      9910
      9910      9913      9915      9916      9910      9913      9915      9917
      9910      9913      9915      9918      9911      9910      9913      9915
      9912      9910      9913      9915      9913      9915      9918      9919
      9913      9915      9918      9920      9913      9915      9918      9926
      9914      9910      9913      9915      9915      9918      9920      9921
      9915      9918      9926      9927      9915      9918      9926      9928
      9915      9918      9926      9929      9916      9915      9918      9919
      9916      9915      9918      9920      9916      9915      9918      9926
      9917      9915      9918      9919      9917      9915      9918      9920
      9917      9915      9918      9926      9918      9920      9921      9922
      9918      9920      9921      9923      9918      9926      9929      9930
      9919      9918      9920      9921      9919      9918      9926      9927
      9919      9918      9926      9928      9919      9918      9926      9929
      9920      9918      9926      9927      9920      9918      9926      9928
      9920      9918      9926      9929      9920      9921      9923      9924
      9920      9921      9923      9925      9920      9921      9923      9935
      9921      9920      9918      9926      9921      9923      9935      9936
      9921      9923      9935      9937      9921      9923      9935      9938
      9922      9921      9923      9924      9922      9921      9923      9925
      9922      9921      9923      9935      9923      9935      9938      9939
      9923      9935      9938      9940      9923      9935      9938      9941
      9924      9923      9935      9936      9924      9923      9935      9937
      9924      9923      9935      9938      9925      9923      9935      9936
      9925      9923      9935      9937      9925      9923      9935      9938
      9926      9929      9930      9931      9926      9929      9930      9932
      9927      9926      9929      9930      9928      9926      9929      9930
      9929      9930      9932      9933      9929      9930      9932      9934
      9929      9930      9932      9982      9930      9932      9982      9983
      9930      9932      9982      9984      9930      9932      9982      9985
      9931      9930      9932      9933      9931      9930      9932      9934
      9931      9930      9932      9982      9932      9982      9985      9986
      9932      9982      9985      9987      9932      9982      9985      9988
      9933      9932      9982      9983      9933      9932      9982      9984
      9933      9932      9982      9985      9934      9932      9982      9983
      9934      9932      9982      9984      9934      9932      9982      9985
      9935      9938      9941      9942      9935      9938      9941      9943
      9935      9938      9941      9944      9936      9935      9938      9939
      9936      9935      9938      9940      9936      9935      9938      9941
      9937      9935      9938      9939      9937      9935      9938      9940
      9937      9935      9938      9941      9938      9941      9944      9945
      9938      9941      9944      9946      9938      9941      9944      9947
      9939      9938      9941      9942      9939      9938      9941      9943
      9939      9938      9941      9944      9940      9938      9941      9942
      9940      9938      9941      9943      9940      9938      9941      9944
      9941      9944      9947      9948      9941      9944      9947      9949
      9941      9944      9947      9950      9942      9941      9944      9945
      9942      9941      9944      9946      9942      9941      9944      9947
      9943      9941      9944      9945      9943      9941      9944      9946
      9943      9941      9944      9947      9944      9947      9950      9951
      9944      9947      9950      9952      9944      9947      9950      9953
      9945      9944      9947      9948      9945      9944      9947      9949
      9945      9944      9947      9950      9946      9944      9947      9948
      9946      9944      9947      9949      9946      9944      9947      9950
      9947      9950      9953      9954      9947      9950      9953      9955
      9948      9947      9950      9951      9948      9947      9950      9952
      9948      9947      9950      9953      9949      9947      9950      9951
      9949      9947      9950      9952      9949      9947      9950      9953
      9950      9953      9955      9956      9950      9953      9955      9957
      9951      9950      9953      9954      9951      9950      9953      9955
      9952      9950      9953      9954      9952      9950      9953      9955
      9953      9955      9957      9958      9953      9955      9957      9959
      9953      9955      9957      9960      9954      9953      9955      9956
      9954      9953      9955      9957      9955      9957      9960      9961
      9955      9957      9960      9962      9955      9957      9960      9963
      9956      9955      9957      9958      9956      9955      9957      9959
      9956      9955      9957      9960      9957      9960      9963      9964
      9957      9960      9963      9965      9957      9960      9963      9966
      9958      9957      9960      9961      9958      9957      9960      9962
      9958      9957      9960      9963      9959      9957      9960      9961
      9959      9957      9960      9962      9959      9957      9960      9963
      9960      9963      9966      9967      9960      9963      9966      9968
      9960      9963      9966      9969      9961      9960      9963      9964
      9961      9960      9963      9965      9961      9960      9963      9966
      9962      9960      9963      9964      9962      9960      9963      9965
      9962      9960      9963      9966      9963      9966      9969      9970
      9963      9966      9969      9971      9963      9966      9969      9972
      9964      9963      9966      9967      9964      9963      9966      9968
      9964      9963      9966      9969      9965      9963      9966      9967
      9965      9963      9966      9968      9965      9963      9966      9969
      9966      9969      9972      9973      9966      9969      9972      9974
      9966      9969      9972      9975      9967      9966      9969      9970
      9967      9966      9969      9971      9967      9966      9969      9972
      9968      9966      9969      9970      9968      9966      9969      9971
      9968      9966      9969      9972      9969      9972      9975      9976
      9969      9972      9975      9977      9969      9972      9975      9978
      9970      9969      9972      9973      9970      9969      9972      9974
      9970      9969      9972      9975      9971      9969      9972      9973
      9971      9969      9972      9974      9971      9969      9972      9975
      9972      9975      9978      9979      9972      9975      9978      9980
      9972      9975      9978      9981      9973      9972      9975      9976
      9973      9972      9975      9977      9973      9972      9975      9978
      9974      9972      9975      9976      9974      9972      9975      9977
      9974      9972      9975      9978      9976      9975      9978      9979
      9976      9975      9978      9980      9976      9975      9978      9981
      9977      9975      9978      9979      9977      9975      9978      9980
      9977      9975      9978      9981      9982      9985      9988      9989
      9982      9985      9988      9990      9982      9985      9988      9991
      9983      9982      9985      9986      9983      9982      9985      9987
      9983      9982      9985      9988      9984      9982      9985      9986
      9984      9982      9985      9987      9984      9982      9985      9988
      9985      9988      9991      9992      9985      9988      9991      9993
      9985      9988      9991      9994      9986      9985      9988      9989
      9986      9985      9988      9990      9986      9985      9988      9991
      9987      9985      9988      9989      9987      9985      9988      9990
      9987      9985      9988      9991      9988      9991      9994      9995
      9988      9991      9994      9996      9988      9991      9994      9997
      9989      9988      9991      9992      9989      9988      9991      9993
      9989      9988      9991      9994      9990      9988      9991      9992
      9990      9988      9991      9993      9990      9988      9991      9994
      9991      9994      9997      9998      9991      9994      9997      9999
      9991      9994      9997     10000      9992      9991      9994      9995
      9992      9991      9994      9996      9992      9991      9994      9997
      9993      9991      9994      9995      9993      9991      9994      9996
      9993      9991      9994      9997      9994      9997     10000     10001
      9994      9997     10000     10002      9994      9997     10000     10003
      9995      9994      9997      9998      9995      9994      9997      9999
      9995      9994      9997     10000      9996      9994      9997      9998
      9996      9994      9997      9999      9996      9994      9997     10000
      9997     10000     10003     10004      9997     10000     10003     10005
      9997     10000     10003     10006      9998      9997     10000     10001
      9998      9997     10000     10002      9998      9997     10000     10003
      9999      9997     10000     10001      9999      9997     10000     10002
      9999      9997     10000     10003     10000     10003     10006     10007
     10000     10003     10006     10008     10000     10003     10006     10009
     10001     10000     10003     10004     10001     10000     10003     10005
     10001     10000     10003     10006     10002     10000     10003     10004
     10002     10000     10003     10005     10002     10000     10003     10006
     10003     10006     10009     10010     10003     10006     10009     10011
     10003     10006     10009     10012     10004     10003     10006     10007
     10004     10003     10006     10008     10004     10003     10006     10009
     10005     10003     10006     10007     10005     10003     10006     10008
     10005     10003     10006     10009     10006     10009     10012     10013
     10006     10009     10012     10014     10006     10009     10012     10015
     10007     10006     10009     10010     10007     10006     10009     10011
     10007     10006     10009     10012     10008     10006     10009     10010
     10008     10006     10009     10011     10008     10006     10009     10012
     10009     10012     10015     10016     10009     10012     10015     10017
     10009     10012     10015     10018     10010     10009     10012     10013
     10010     10009     10012     10014     10010     10009     10012     10015
     10011     10009     10012     10013     10011     10009     10012     10014
     10011     10009     10012     10015     10012     10015     10018     10019
     10012     10015     10018     10020     10012     10015     10018     10021
     10013     10012     10015     10016     10013     10012     10015     10017
     10013     10012     10015     10018     10014     10012     10015     10016
     10014     10012     10015     10017     10014     10012     10015     10018
     10015     10018     10021     10022     10015     10018     10021     10023
     10015     10018     10021     10024     10016     10015     10018     10019
     10016     10015     10018     10020     10016     10015     10018     10021
     10017     10015     10018     10019     10017     10015     10018     10020
     10017     10015     10018     10021     10019     10018     10021     10022
     10019     10018     10021     10023     10019     10018     10021     10024
     10020     10018     10021     10022     10020     10018     10021     10023
     10020     10018     10021     10024     10025     10029     10032     10033
     10025     10029     10032     10034     10025     10029     10032     10039
     10026     10025     10029     10030     10026     10025     10029     10031
     10026     10025     10029     10032     10027     10025     10029     10030
     10027     10025     10029     10031     10027     10025     10029     10032
     10028     10025     10029     10030     10028     10025     10029     10031
     10028     10025     10029     10032     10029     10032     10039     10035
     10030     10029     10032     10033     10030     10029     10032     10034
     10030     10029     10032     10039     10031     10029     10032     10033
     10031     10029     10032     10034     10031     10029     10032     10039
     10032     10039     10035     10036     10032     10039     10035     10037
     10032     10039     10035     10038     10033     10032     10039     10035
     10034     10032     10039     10035     10035     10038     10040     10041
     10035     10038     10040     10042     10035     10038     10040     10043
     10036     10035     10038     10040     10037     10035     10038     10040
     10038     10040     10043     10044     10038     10040     10043     10045
     10038     10040     10043     10051     10039     10035     10038     10040
     10040     10043     10045     10046     10040     10043     10051     10052
     10040     10043     10051     10053     10040     10043     10051     10054
     10041     10040     10043     10044     10041     10040     10043     10045
     10041     10040     10043     10051     10042     10040     10043     10044
     10042     10040     10043     10045     10042     10040     10043     10051
     10043     10045     10046     10047     10043     10045     10046     10048
     10043     10051     10054     10055     10044     10043     10045     10046
     10044     10043     10051     10052     10044     10043     10051     10053
     10044     10043     10051     10054     10045     10043     10051     10052
     10045     10043     10051     10053     10045     10043     10051     10054
     10045     10046     10048     10049     10045     10046     10048     10050
     10045     10046     10048     10060     10046     10045     10043     10051
     10046     10048     10060     10061     10046     10048     10060     10062
     10046     10048     10060     10063     10047     10046     10048     10049
     10047     10046     10048     10050     10047     10046     10048     10060
     10048     10060     10063     10064     10048     10060     10063     10065
     10048     10060     10063     10066     10049     10048     10060     10061
     10049     10048     10060     10062     10049     10048     10060     10063
     10050     10048     10060     10061     10050     10048     10060     10062
     10050     10048     10060     10063     10051     10054     10055     10056
     10051     10054     10055     10057     10052     10051     10054     10055
     10053     10051     10054     10055     10054     10055     10057     10058
     10054     10055     10057     10059     10054     10055     10057     10104
     10055     10057     10104     10105     10055     10057     10104     10106
     10055     10057     10104     10107     10056     10055     10057     10058
     10056     10055     10057     10059     10056     10055     10057     10104
     10057     10104     10107     10108     10057     10104     10107     10109
     10057     10104     10107     10110     10058     10057     10104     10105
     10058     10057     10104     10106     10058     10057     10104     10107
     10059     10057     10104     10105     10059     10057     10104     10106
     10059     10057     10104     10107     10060     10063     10066     10067
     10060     10063     10066     10068     10060     10063     10066     10069
     10061     10060     10063     10064     10061     10060     10063     10065
     10061     10060     10063     10066     10062     10060     10063     10064
     10062     10060     10063     10065     10062     10060     10063     10066
     10063     10066     10069     10070     10063     10066     10069     10071
     10063     10066     10069     10072     10064     10063     10066     10067
     10064     10063     10066     10068     10064     10063     10066     10069
     10065     10063     10066     10067     10065     10063     10066     10068
     10065     10063     10066     10069     10066     10069     10072     10073
     10066     10069     10072     10074     10066     10069     10072     10075
     10067     10066     10069     10070     10067     10066     10069     10071
     10067     10066     10069     10072     10068     10066     10069     10070
     10068     10066     10069     10071     10068     10066     10069     10072
     10069     10072     10075     10076     10069     10072     10075     10077
     10069     10072     10075     10078     10070     10069     10072     10073
     10070     10069     10072     10074     10070     10069     10072     10075
     10071     10069     10072     10073     10071     10069     10072     10074
     10071     10069     10072     10075     10072     10075     10078     10079
     10072     10075     10078     10080     10072     10075     10078     10083
     10073     10072     10075     10076     10073     10072     10075     10077
     10073     10072     10075     10078     10074     10072     10075     10076
     10074     10072     10075     10077     10074     10072     10075     10078
     10075     10078     10080     10081     10075     10078     10080     10082
     10075     10078     10080     10083     10075     10078     10083     10080
     10075     10078     10083     10084     10075     10078     10083     10085
     10076     10075     10078     10079     10076     10075     10078     10080
     10076     10075     10078     10083     10077     10075     10078     10079
     10077     10075     10078     10080     10077     10075     10078     10083
     10078     10080     10083     10084     10078     10080     10083     10085
     10078     10083     10080     10081     10078     10083     10080     10082
     10078     10083     10085     10086     10078     10083     10085     10087
     10078     10083     10085     10088     10079     10078     10080     10081
     10079     10078     10080     10082     10079     10078     10080     10083
     10079     10078     10083     10080     10079     10078     10083     10084
     10079     10078     10083     10085     10080     10078     10083     10084
     10080     10078     10083     10085     10080     10083     10085     10086
     10080     10083     10085     10087     10080     10083     10085     10088
     10081     10080     10078     10083     10081     10080     10083     10084
     10081     10080     10083     10085     10082     10080     10078     10083
     10082     10080     10083     10084     10082     10080     10083     10085
     10083     10085     10088     10089     10083     10085     10088     10090
     10083     10085     10088     10091     10084     10083     10085     10086
     10084     10083     10085     10087     10084     10083     10085     10088
     10085     10088     10091     10092     10085     10088     10091     10093
     10085     10088     10091     10094     10086     10085     10088     10089
     10086     10085     10088     10090     10086     10085     10088     10091
     10087     10085     10088     10089     10087     10085     10088     10090
     10087     10085     10088     10091     10088     10091     10094     10095
     10088     10091     10094     10096     10088     10091     10094     10097
     10089     10088     10091     10092     10089     10088     10091     10093
     10089     10088     10091     10094     10090     10088     10091     10092
     10090     10088     10091     10093     10090     10088     10091     10094
     10091     10094     10097     10098     10091     10094     10097     10099
     10091     10094     10097     10100     10092     10091     10094     10095
     10092     10091     10094     10096     10092     10091     10094     10097
     10093     10091     10094     10095     10093     10091     10094     10096
     10093     10091     10094     10097     10094     10097     10100     10101
     10094     10097     10100     10102     10094     10097     10100     10103
     10095     10094     10097     10098     10095     10094     10097     10099
     10095     10094     10097     10100     10096     10094     10097     10098
     10096     10094     10097     10099     10096     10094     10097     10100
     10098     10097     10100     10101     10098     10097     10100     10102
     10098     10097     10100     10103     10099     10097     10100     10101
     10099     10097     10100     10102     10099     10097     10100     10103
     10104     10107     10110     10111     10104     10107     10110     10112
     10104     10107     10110     10113     10105     10104     10107     10108
     10105     10104     10107     10109     10105     10104     10107     10110
     10106     10104     10107     10108     10106     10104     10107     10109
     10106     10104     10107     10110     10107     10110     10113     10114
     10107     10110     10113     10115     10107     10110     10113     10116
     10108     10107     10110     10111     10108     10107     10110     10112
     10108     10107     10110     10113     10109     10107     10110     10111
     10109     10107     10110     10112     10109     10107     10110     10113
     10110     10113     10116     10117     10110     10113     10116     10118
     10110     10113     10116     10119     10111     10110     10113     10114
     10111     10110     10113     10115     10111     10110     10113     10116
     10112     10110     10113     10114     10112     10110     10113     10115
     10112     10110     10113     10116     10113     10116     10119     10120
     10113     10116     10119     10121     10113     10116     10119     10122
     10114     10113     10116     10117     10114     10113     10116     10118
     10114     10113     10116     10119     10115     10113     10116     10117
     10115     10113     10116     10118     10115     10113     10116     10119
     10116     10119     10122     10123     10116     10119     10122     10124
     10116     10119     10122     10125     10117     10116     10119     10120
     10117     10116     10119     10121     10117     10116     10119     10122
     10118     10116     10119     10120     10118     10116     10119     10121
     10118     10116     10119     10122     10119     10122     10125     10126
     10119     10122     10125     10127     10119     10122     10125     10128
     10120     10119     10122     10123     10120     10119     10122     10124
     10120     10119     10122     10125     10121     10119     10122     10123
     10121     10119     10122     10124     10121     10119     10122     10125
     10122     10125     10128     10129     10122     10125     10128     10130
     10122     10125     10128     10131     10123     10122     10125     10126
     10123     10122     10125     10127     10123     10122     10125     10128
     10124     10122     10125     10126     10124     10122     10125     10127
     10124     10122     10125     10128     10125     10128     10131     10132
     10125     10128     10131     10133     10125     10128     10131     10134
     10126     10125     10128     10129     10126     10125     10128     10130
     10126     10125     10128     10131     10127     10125     10128     10129
     10127     10125     10128     10130     10127     10125     10128     10131
     10128     10131     10134     10135     10128     10131     10134     10136
     10128     10131     10134     10137     10129     10128     10131     10132
     10129     10128     10131     10133     10129     10128     10131     10134
     10130     10128     10131     10132     10130     10128     10131     10133
     10130     10128     10131     10134     10131     10134     10137     10138
     10131     10134     10137     10139     10131     10134     10137     10140
     10132     10131     10134     10135     10132     10131     10134     10136
     10132     10131     10134     10137     10133     10131     10134     10135
     10133     10131     10134     10136     10133     10131     10134     10137
     10134     10137     10140     10141     10134     10137     10140     10142
     10134     10137     10140     10143     10135     10134     10137     10138
     10135     10134     10137     10139     10135     10134     10137     10140
     10136     10134     10137     10138     10136     10134     10137     10139
     10136     10134     10137     10140     10137     10140     10143     10144
     10137     10140     10143     10145     10137     10140     10143     10146
     10138     10137     10140     10141     10138     10137     10140     10142
     10138     10137     10140     10143     10139     10137     10140     10141
     10139     10137     10140     10142     10139     10137     10140     10143
     10141     10140     10143     10144     10141     10140     10143     10145
     10141     10140     10143     10146     10142     10140     10143     10144
     10142     10140     10143     10145     10142     10140     10143     10146
     10147     10151     10154     10155     10147     10151     10154     10156
     10147     10151     10154     10161     10148     10147     10151     10152
     10148     10147     10151     10153     10148     10147     10151     10154
     10149     10147     10151     10152     10149     10147     10151     10153
     10149     10147     10151     10154     10150     10147     10151     10152
     10150     10147     10151     10153     10150     10147     10151     10154
     10151     10154     10161     10157     10152     10151     10154     10155
     10152     10151     10154     10156     10152     10151     10154     10161
     10153     10151     10154     10155     10153     10151     10154     10156
     10153     10151     10154     10161     10154     10161     10157     10158
     10154     10161     10157     10159     10154     10161     10157     10160
     10155     10154     10161     10157     10156     10154     10161     10157
     10157     10160     10162     10163     10157     10160     10162     10164
     10157     10160     10162     10165     10158     10157     10160     10162
     10159     10157     10160     10162     10160     10162     10165     10166
     10160     10162     10165     10167     10160     10162     10165     10173
     10161     10157     10160     10162     10162     10165     10167     10168
     10162     10165     10173     10174     10162     10165     10173     10175
     10162     10165     10173     10176     10163     10162     10165     10166
     10163     10162     10165     10167     10163     10162     10165     10173
     10164     10162     10165     10166     10164     10162     10165     10167
     10164     10162     10165     10173     10165     10167     10168     10169
     10165     10167     10168     10170     10165     10173     10176     10177
     10166     10165     10167     10168     10166     10165     10173     10174
     10166     10165     10173     10175     10166     10165     10173     10176
     10167     10165     10173     10174     10167     10165     10173     10175
     10167     10165     10173     10176     10167     10168     10170     10171
     10167     10168     10170     10172     10167     10168     10170     10182
     10168     10167     10165     10173     10168     10170     10182     10183
     10168     10170     10182     10184     10168     10170     10182     10185
     10169     10168     10170     10171     10169     10168     10170     10172
     10169     10168     10170     10182     10170     10182     10185     10186
     10170     10182     10185     10187     10170     10182     10185     10188
     10171     10170     10182     10183     10171     10170     10182     10184
     10171     10170     10182     10185     10172     10170     10182     10183
     10172     10170     10182     10184     10172     10170     10182     10185
     10173     10176     10177     10178     10173     10176     10177     10179
     10174     10173     10176     10177     10175     10173     10176     10177
     10176     10177     10179     10180     10176     10177     10179     10181
     10176     10177     10179     10226     10177     10179     10226     10227
     10177     10179     10226     10228     10177     10179     10226     10229
     10178     10177     10179     10180     10178     10177     10179     10181
     10178     10177     10179     10226     10179     10226     10229     10230
     10179     10226     10229     10231     10179     10226     10229     10232
     10180     10179     10226     10227     10180     10179     10226     10228
     10180     10179     10226     10229     10181     10179     10226     10227
     10181     10179     10226     10228     10181     10179     10226     10229
     10182     10185     10188     10189     10182     10185     10188     10190
     10182     10185     10188     10191     10183     10182     10185     10186
     10183     10182     10185     10187     10183     10182     10185     10188
     10184     10182     10185     10186     10184     10182     10185     10187
     10184     10182     10185     10188     10185     10188     10191     10192
     10185     10188     10191     10193     10185     10188     10191     10194
     10186     10185     10188     10189     10186     10185     10188     10190
     10186     10185     10188     10191     10187     10185     10188     10189
     10187     10185     10188     10190     10187     10185     10188     10191
     10188     10191     10194     10195     10188     10191     10194     10196
     10188     10191     10194     10197     10189     10188     10191     10192
     10189     10188     10191     10193     10189     10188     10191     10194
     10190     10188     10191     10192     10190     10188     10191     10193
     10190     10188     10191     10194     10191     10194     10197     10198
     10191     10194     10197     10199     10191     10194     10197     10200
     10192     10191     10194     10195     10192     10191     10194     10196
     10192     10191     10194     10197     10193     10191     10194     10195
     10193     10191     10194     10196     10193     10191     10194     10197
     10194     10197     10200     10201     10194     10197     10200     10202
     10194     10197     10200     10205     10195     10194     10197     10198
     10195     10194     10197     10199     10195     10194     10197     10200
     10196     10194     10197     10198     10196     10194     10197     10199
     10196     10194     10197     10200     10197     10200     10202     10203
     10197     10200     10202     10204     10197     10200     10202     10205
     10197     10200     10205     10202     10197     10200     10205     10206
     10197     10200     10205     10207     10198     10197     10200     10201
     10198     10197     10200     10202     10198     10197     10200     10205
     10199     10197     10200     10201     10199     10197     10200     10202
     10199     10197     10200     10205     10200     10202     10205     10206
     10200     10202     10205     10207     10200     10205     10202     10203
     10200     10205     10202     10204     10200     10205     10207     10208
     10200     10205     10207     10209     10200     10205     10207     10210
     10201     10200     10202     10203     10201     10200     10202     10204
     10201     10200     10202     10205     10201     10200     10205     10202
     10201     10200     10205     10206     10201     10200     10205     10207
     10202     10200     10205     10206     10202     10200     10205     10207
     10202     10205     10207     10208     10202     10205     10207     10209
     10202     10205     10207     10210     10203     10202     10200     10205
     10203     10202     10205     10206     10203     10202     10205     10207
     10204     10202     10200     10205     10204     10202     10205     10206
     10204     10202     10205     10207     10205     10207     10210     10211
     10205     10207     10210     10212     10205     10207     10210     10213
     10206     10205     10207     10208     10206     10205     10207     10209
     10206     10205     10207     10210     10207     10210     10213     10214
     10207     10210     10213     10215     10207     10210     10213     10216
     10208     10207     10210     10211     10208     10207     10210     10212
     10208     10207     10210     10213     10209     10207     10210     10211
     10209     10207     10210     10212     10209     10207     10210     10213
     10210     10213     10216     10217     10210     10213     10216     10218
     10210     10213     10216     10219     10211     10210     10213     10214
     10211     10210     10213     10215     10211     10210     10213     10216
     10212     10210     10213     10214     10212     10210     10213     10215
     10212     10210     10213     10216     10213     10216     10219     10220
     10213     10216     10219     10221     10213     10216     10219     10222
     10214     10213     10216     10217     10214     10213     10216     10218
     10214     10213     10216     10219     10215     10213     10216     10217
     10215     10213     10216     10218     10215     10213     10216     10219
     10216     10219     10222     10223     10216     10219     10222     10224
     10216     10219     10222     10225     10217     10216     10219     10220
     10217     10216     10219     10221     10217     10216     10219     10222
     10218     10216     10219     10220     10218     10216     10219     10221
     10218     10216     10219     10222     10220     10219     10222     10223
     10220     10219     10222     10224     10220     10219     10222     10225
     10221     10219     10222     10223     10221     10219     10222     10224
     10221     10219     10222     10225     10226     10229     10232     10233
     10226     10229     10232     10234     10226     10229     10232     10235
     10227     10226     10229     10230     10227     10226     10229     10231
     10227     10226     10229     10232     10228     10226     10229     10230
     10228     10226     10229     10231     10228     10226     10229     10232
     10229     10232     10235     10236     10229     10232     10235     10237
     10229     10232     10235     10238     10230     10229     10232     10233
     10230     10229     10232     10234     10230     10229     10232     10235
     10231     10229     10232     10233     10231     10229     10232     10234
     10231     10229     10232     10235     10232     10235     10238     10239
     10232     10235     10238     10240     10232     10235     10238     10241
     10233     10232     10235     10236     10233     10232     10235     10237
     10233     10232     10235     10238     10234     10232     10235     10236
     10234     10232     10235     10237     10234     10232     10235     10238
     10235     10238     10241     10242     10235     10238     10241     10243
     10235     10238     10241     10244     10236     10235     10238     10239
     10236     10235     10238     10240     10236     10235     10238     10241
     10237     10235     10238     10239     10237     10235     10238     10240
     10237     10235     10238     10241     10238     10241     10244     10245
     10238     10241     10244     10246     10238     10241     10244     10247
     10239     10238     10241     10242     10239     10238     10241     10243
     10239     10238     10241     10244     10240     10238     10241     10242
     10240     10238     10241     10243     10240     10238     10241     10244
     10241     10244     10247     10248     10241     10244     10247     10249
     10241     10244     10247     10250     10242     10241     10244     10245
     10242     10241     10244     10246     10242     10241     10244     10247
     10243     10241     10244     10245     10243     10241     10244     10246
     10243     10241     10244     10247     10244     10247     10250     10251
     10244     10247     10250     10252     10244     10247     10250     10253
     10245     10244     10247     10248     10245     10244     10247     10249
     10245     10244     10247     10250     10246     10244     10247     10248
     10246     10244     10247     10249     10246     10244     10247     10250
     10247     10250     10253     10254     10247     10250     10253     10255
     10247     10250     10253     10256     10248     10247     10250     10251
     10248     10247     10250     10252     10248     10247     10250     10253
     10249     10247     10250     10251     10249     10247     10250     10252
     10249     10247     10250     10253     10250     10253     10256     10257
     10250     10253     10256     10258     10250     10253     10256     10259
     10251     10250     10253     10254     10251     10250     10253     10255
     10251     10250     10253     10256     10252     10250     10253     10254
     10252     10250     10253     10255     10252     10250     10253     10256
     10253     10256     10259     10260     10253     10256     10259     10261
     10253     10256     10259     10262     10254     10253     10256     10257
     10254     10253     10256     10258     10254     10253     10256     10259
     10255     10253     10256     10257     10255     10253     10256     10258
     10255     10253     10256     10259     10256     10259     10262     10263
     10256     10259     10262     10264     10256     10259     10262     10265
     10257     10256     10259     10260     10257     10256     10259     10261
     10257     10256     10259     10262     10258     10256     10259     10260
     10258     10256     10259     10261     10258     10256     10259     10262
     10259     10262     10265     10266     10259     10262     10265     10267
     10259     10262     10265     10268     10260     10259     10262     10263
     10260     10259     10262     10264     10260     10259     10262     10265
     10261     10259     10262     10263     10261     10259     10262     10264
     10261     10259     10262     10265     10263     10262     10265     10266
     10263     10262     10265     10267     10263     10262     10265     10268
     10264     10262     10265     10266     10264     10262     10265     10267
     10264     10262     10265     10268     10269     10273     10276     10277
     10269     10273     10276     10278     10269     10273     10276     10283
     10270     10269     10273     10274     10270     10269     10273     10275
     10270     10269     10273     10276     10271     10269     10273     10274
     10271     10269     10273     10275     10271     10269     10273     10276
     10272     10269     10273     10274     10272     10269     10273     10275
     10272     10269     10273     10276     10273     10276     10283     10279
     10274     10273     10276     10277     10274     10273     10276     10278
     10274     10273     10276     10283     10275     10273     10276     10277
     10275     10273     10276     10278     10275     10273     10276     10283
     10276     10283     10279     10280     10276     10283     10279     10281
     10276     10283     10279     10282     10277     10276     10283     10279
     10278     10276     10283     10279     10279     10282     10284     10285
     10279     10282     10284     10286     10279     10282     10284     10287
     10280     10279     10282     10284     10281     10279     10282     10284
     10282     10284     10287     10288     10282     10284     10287     10289
     10282     10284     10287     10295     10283     10279     10282     10284
     10284     10287     10289     10290     10284     10287     10295     10296
     10284     10287     10295     10297     10284     10287     10295     10298
     10285     10284     10287     10288     10285     10284     10287     10289
     10285     10284     10287     10295     10286     10284     10287     10288
     10286     10284     10287     10289     10286     10284     10287     10295
     10287     10289     10290     10291     10287     10289     10290     10292
     10287     10295     10298     10299     10288     10287     10289     10290
     10288     10287     10295     10296     10288     10287     10295     10297
     10288     10287     10295     10298     10289     10287     10295     10296
     10289     10287     10295     10297     10289     10287     10295     10298
     10289     10290     10292     10293     10289     10290     10292     10294
     10289     10290     10292     10304     10290     10289     10287     10295
     10290     10292     10304     10305     10290     10292     10304     10306
     10290     10292     10304     10307     10291     10290     10292     10293
     10291     10290     10292     10294     10291     10290     10292     10304
     10292     10304     10307     10308     10292     10304     10307     10309
     10292     10304     10307     10310     10293     10292     10304     10305
     10293     10292     10304     10306     10293     10292     10304     10307
     10294     10292     10304     10305     10294     10292     10304     10306
     10294     10292     10304     10307     10295     10298     10299     10300
     10295     10298     10299     10301     10296     10295     10298     10299
     10297     10295     10298     10299     10298     10299     10301     10302
     10298     10299     10301     10303     10298     10299     10301     10345
     10299     10301     10345     10346     10299     10301     10345     10347
     10299     10301     10345     10348     10300     10299     10301     10302
     10300     10299     10301     10303     10300     10299     10301     10345
     10301     10345     10348     10349     10301     10345     10348     10350
     10301     10345     10348     10351     10302     10301     10345     10346
     10302     10301     10345     10347     10302     10301     10345     10348
     10303     10301     10345     10346     10303     10301     10345     10347
     10303     10301     10345     10348     10304     10307     10310     10311
     10304     10307     10310     10312     10304     10307     10310     10313
     10305     10304     10307     10308     10305     10304     10307     10309
     10305     10304     10307     10310     10306     10304     10307     10308
     10306     10304     10307     10309     10306     10304     10307     10310
     10307     10310     10313     10314     10307     10310     10313     10315
     10307     10310     10313     10316     10308     10307     10310     10311
     10308     10307     10310     10312     10308     10307     10310     10313
     10309     10307     10310     10311     10309     10307     10310     10312
     10309     10307     10310     10313     10310     10313     10316     10317
     10310     10313     10316     10318     10310     10313     10316     10319
     10311     10310     10313     10314     10311     10310     10313     10315
     10311     10310     10313     10316     10312     10310     10313     10314
     10312     10310     10313     10315     10312     10310     10313     10316
     10313     10316     10319     10320     10313     10316     10319     10321
     10313     10316     10319     10322     10314     10313     10316     10317
     10314     10313     10316     10318     10314     10313     10316     10319
     10315     10313     10316     10317     10315     10313     10316     10318
     10315     10313     10316     10319     10316     10319     10322     10323
     10316     10319     10322     10324     10317     10316     10319     10320
     10317     10316     10319     10321     10317     10316     10319     10322
     10318     10316     10319     10320     10318     10316     10319     10321
     10318     10316     10319     10322     10319     10322     10324     10325
     10319     10322     10324     10326     10320     10319     10322     10323
     10320     10319     10322     10324     10321     10319     10322     10323
     10321     10319     10322     10324     10322     10324     10326     10327
     10322     10324     10326     10328     10322     10324     10326     10329
     10323     10322     10324     10325     10323     10322     10324     10326
     10324     10326     10329     10330     10324     10326     10329     10331
     10324     10326     10329     10332     10325     10324     10326     10327
     10325     10324     10326     10328     10325     10324     10326     10329
     10326     10329     10332     10333     10326     10329     10332     10334
     10326     10329     10332     10335     10327     10326     10329     10330
     10327     10326     10329     10331     10327     10326     10329     10332
     10328     10326     10329     10330     10328     10326     10329     10331
     10328     10326     10329     10332     10329     10332     10335     10336
     10329     10332     10335     10337     10329     10332     10335     10338
     10330     10329     10332     10333     10330     10329     10332     10334
     10330     10329     10332     10335     10331     10329     10332     10333
     10331     10329     10332     10334     10331     10329     10332     10335
     10332     10335     10338     10339     10332     10335     10338     10340
     10332     10335     10338     10341     10333     10332     10335     10336
     10333     10332     10335     10337     10333     10332     10335     10338
     10334     10332     10335     10336     10334     10332     10335     10337
     10334     10332     10335     10338     10335     10338     10341     10342
     10335     10338     10341     10343     10335     10338     10341     10344
     10336     10335     10338     10339     10336     10335     10338     10340
     10336     10335     10338     10341     10337     10335     10338     10339
     10337     10335     10338     10340     10337     10335     10338     10341
     10339     10338     10341     10342     10339     10338     10341     10343
     10339     10338     10341     10344     10340     10338     10341     10342
     10340     10338     10341     10343     10340     10338     10341     10344
     10345     10348     10351     10352     10345     10348     10351     10353
     10345     10348     10351     10354     10346     10345     10348     10349
     10346     10345     10348     10350     10346     10345     10348     10351
     10347     10345     10348     10349     10347     10345     10348     10350
     10347     10345     10348     10351     10348     10351     10354     10355
     10348     10351     10354     10356     10348     10351     10354     10357
     10349     10348     10351     10352     10349     10348     10351     10353
     10349     10348     10351     10354     10350     10348     10351     10352
     10350     10348     10351     10353     10350     10348     10351     10354
     10351     10354     10357     10358     10351     10354     10357     10359
     10351     10354     10357     10360     10352     10351     10354     10355
     10352     10351     10354     10356     10352     10351     10354     10357
     10353     10351     10354     10355     10353     10351     10354     10356
     10353     10351     10354     10357     10354     10357     10360     10361
     10354     10357     10360     10362     10354     10357     10360     10363
     10355     10354     10357     10358     10355     10354     10357     10359
     10355     10354     10357     10360     10356     10354     10357     10358
     10356     10354     10357     10359     10356     10354     10357     10360
     10357     10360     10363     10364     10357     10360     10363     10365
     10358     10357     10360     10361     10358     10357     10360     10362
     10358     10357     10360     10363     10359     10357     10360     10361
     10359     10357     10360     10362     10359     10357     10360     10363
     10360     10363     10365     10366     10360     10363     10365     10367
     10361     10360     10363     10364     10361     10360     10363     10365
     10362     10360     10363     10364     10362     10360     10363     10365
     10363     10365     10367     10368     10363     10365     10367     10369
     10363     10365     10367     10370     10364     10363     10365     10366
     10364     10363     10365     10367     10365     10367     10370     10371
     10365     10367     10370     10372     10365     10367     10370     10373
     10366     10365     10367     10368     10366     10365     10367     10369
     10366     10365     10367     10370     10367     10370     10373     10374
     10367     10370     10373     10375     10367     10370     10373     10376
     10368     10367     10370     10371     10368     10367     10370     10372
     10368     10367     10370     10373     10369     10367     10370     10371
     10369     10367     10370     10372     10369     10367     10370     10373
     10370     10373     10376     10377     10370     10373     10376     10378
     10370     10373     10376     10379     10371     10370     10373     10374
     10371     10370     10373     10375     10371     10370     10373     10376
     10372     10370     10373     10374     10372     10370     10373     10375
     10372     10370     10373     10376     10373     10376     10379     10380
     10373     10376     10379     10381     10373     10376     10379     10382
     10374     10373     10376     10377     10374     10373     10376     10378
     10374     10373     10376     10379     10375     10373     10376     10377
     10375     10373     10376     10378     10375     10373     10376     10379
     10376     10379     10382     10383     10376     10379     10382     10384
     10376     10379     10382     10385     10377     10376     10379     10380
     10377     10376     10379     10381     10377     10376     10379     10382
     10378     10376     10379     10380     10378     10376     10379     10381
     10378     10376     10379     10382     10379     10382     10385     10386
     10379     10382     10385     10387     10379     10382     10385     10388
     10380     10379     10382     10383     10380     10379     10382     10384
     10380     10379     10382     10385     10381     10379     10382     10383
     10381     10379     10382     10384     10381     10379     10382     10385
     10382     10385     10388     10389     10382     10385     10388     10390
     10382     10385     10388     10391     10383     10382     10385     10386
     10383     10382     10385     10387     10383     10382     10385     10388
     10384     10382     10385     10386     10384     10382     10385     10387
     10384     10382     10385     10388     10386     10385     10388     10389
     10386     10385     10388     10390     10386     10385     10388     10391
     10387     10385     10388     10389     10387     10385     10388     10390
     10387     10385     10388     10391     10392     10396     10399     10400
     10392     10396     10399     10401     10392     10396     10399     10406
     10393     10392     10396     10397     10393     10392     10396     10398
     10393     10392     10396     10399     10394     10392     10396     10397
     10394     10392     10396     10398     10394     10392     10396     10399
     10395     10392     10396     10397     10395     10392     10396     10398
     10395     10392     10396     10399     10396     10399     10406     10402
     10397     10396     10399     10400     10397     10396     10399     10401
     10397     10396     10399     10406     10398     10396     10399     10400
     10398     10396     10399     10401     10398     10396     10399     10406
     10399     10406     10402     10403     10399     10406     10402     10404
     10399     10406     10402     10405     10400     10399     10406     10402
     10401     10399     10406     10402     10402     10405     10407     10408
     10402     10405     10407     10409     10402     10405     10407     10410
     10403     10402     10405     10407     10404     10402     10405     10407
     10405     10407     10410     10411     10405     10407     10410     10412
     10405     10407     10410     10418     10406     10402     10405     10407
     10407     10410     10412     10413     10407     10410     10418     10419
     10407     10410     10418     10420     10407     10410     10418     10421
     10408     10407     10410     10411     10408     10407     10410     10412
     10408     10407     10410     10418     10409     10407     10410     10411
     10409     10407     10410     10412     10409     10407     10410     10418
     10410     10412     10413     10414     10410     10412     10413     10415
     10410     10418     10421     10422     10411     10410     10412     10413
     10411     10410     10418     10419     10411     10410     10418     10420
     10411     10410     10418     10421     10412     10410     10418     10419
     10412     10410     10418     10420     10412     10410     10418     10421
     10412     10413     10415     10416     10412     10413     10415     10417
     10412     10413     10415     10427     10413     10412     10410     10418
     10413     10415     10427     10428     10413     10415     10427     10429
     10413     10415     10427     10430     10414     10413     10415     10416
     10414     10413     10415     10417     10414     10413     10415     10427
     10415     10427     10430     10431     10415     10427     10430     10432
     10415     10427     10430     10433     10416     10415     10427     10428
     10416     10415     10427     10429     10416     10415     10427     10430
     10417     10415     10427     10428     10417     10415     10427     10429
     10417     10415     10427     10430     10418     10421     10422     10423
     10418     10421     10422     10424     10419     10418     10421     10422
     10420     10418     10421     10422     10421     10422     10424     10425
     10421     10422     10424     10426     10421     10422     10424     10471
     10422     10424     10471     10472     10422     10424     10471     10473
     10422     10424     10471     10474     10423     10422     10424     10425
     10423     10422     10424     10426     10423     10422     10424     10471
     10424     10471     10474     10475     10424     10471     10474     10476
     10424     10471     10474     10477     10425     10424     10471     10472
     10425     10424     10471     10473     10425     10424     10471     10474
     10426     10424     10471     10472     10426     10424     10471     10473
     10426     10424     10471     10474     10427     10430     10433     10434
     10427     10430     10433     10435     10427     10430     10433     10436
     10428     10427     10430     10431     10428     10427     10430     10432
     10428     10427     10430     10433     10429     10427     10430     10431
     10429     10427     10430     10432     10429     10427     10430     10433
     10430     10433     10436     10437     10430     10433     10436     10438
     10430     10433     10436     10439     10431     10430     10433     10434
     10431     10430     10433     10435     10431     10430     10433     10436
     10432     10430     10433     10434     10432     10430     10433     10435
     10432     10430     10433     10436     10433     10436     10439     10440
     10433     10436     10439     10441     10433     10436     10439     10442
     10434     10433     10436     10437     10434     10433     10436     10438
     10434     10433     10436     10439     10435     10433     10436     10437
     10435     10433     10436     10438     10435     10433     10436     10439
     10436     10439     10442     10443     10436     10439     10442     10444
     10436     10439     10442     10445     10437     10436     10439     10440
     10437     10436     10439     10441     10437     10436     10439     10442
     10438     10436     10439     10440     10438     10436     10439     10441
     10438     10436     10439     10442     10439     10442     10445     10446
     10439     10442     10445     10447     10439     10442     10445     10450
     10440     10439     10442     10443     10440     10439     10442     10444
     10440     10439     10442     10445     10441     10439     10442     10443
     10441     10439     10442     10444     10441     10439     10442     10445
     10442     10445     10447     10448     10442     10445     10447     10449
     10442     10445     10447     10450     10442     10445     10450     10447
     10442     10445     10450     10451     10442     10445     10450     10452
     10443     10442     10445     10446     10443     10442     10445     10447
     10443     10442     10445     10450     10444     10442     10445     10446
     10444     10442     10445     10447     10444     10442     10445     10450
     10445     10447     10450     10451     10445     10447     10450     10452
     10445     10450     10447     10448     10445     10450     10447     10449
     10445     10450     10452     10453     10445     10450     10452     10454
     10445     10450     10452     10455     10446     10445     10447     10448
     10446     10445     10447     10449     10446     10445     10447     10450
     10446     10445     10450     10447     10446     10445     10450     10451
     10446     10445     10450     10452     10447     10445     10450     10451
     10447     10445     10450     10452     10447     10450     10452     10453
     10447     10450     10452     10454     10447     10450     10452     10455
     10448     10447     10445     10450     10448     10447     10450     10451
     10448     10447     10450     10452     10449     10447     10445     10450
     10449     10447     10450     10451     10449     10447     10450     10452
     10450     10452     10455     10456     10450     10452     10455     10457
     10450     10452     10455     10458     10451     10450     10452     10453
     10451     10450     10452     10454     10451     10450     10452     10455
     10452     10455     10458     10459     10452     10455     10458     10460
     10452     10455     10458     10461     10453     10452     10455     10456
     10453     10452     10455     10457     10453     10452     10455     10458
     10454     10452     10455     10456     10454     10452     10455     10457
     10454     10452     10455     10458     10455     10458     10461     10462
     10455     10458     10461     10463     10455     10458     10461     10464
     10456     10455     10458     10459     10456     10455     10458     10460
     10456     10455     10458     10461     10457     10455     10458     10459
     10457     10455     10458     10460     10457     10455     10458     10461
     10458     10461     10464     10465     10458     10461     10464     10466
     10458     10461     10464     10467     10459     10458     10461     10462
     10459     10458     10461     10463     10459     10458     10461     10464
     10460     10458     10461     10462     10460     10458     10461     10463
     10460     10458     10461     10464     10461     10464     10467     10468
     10461     10464     10467     10469     10461     10464     10467     10470
     10462     10461     10464     10465     10462     10461     10464     10466
     10462     10461     10464     10467     10463     10461     10464     10465
     10463     10461     10464     10466     10463     10461     10464     10467
     10465     10464     10467     10468     10465     10464     10467     10469
     10465     10464     10467     10470     10466     10464     10467     10468
     10466     10464     10467     10469     10466     10464     10467     10470
     10471     10474     10477     10478     10471     10474     10477     10479
     10471     10474     10477     10480     10472     10471     10474     10475
     10472     10471     10474     10476     10472     10471     10474     10477
     10473     10471     10474     10475     10473     10471     10474     10476
     10473     10471     10474     10477     10474     10477     10480     10481
     10474     10477     10480     10482     10474     10477     10480     10483
     10475     10474     10477     10478     10475     10474     10477     10479
     10475     10474     10477     10480     10476     10474     10477     10478
     10476     10474     10477     10479     10476     10474     10477     10480
     10477     10480     10483     10484     10477     10480     10483     10485
     10477     10480     10483     10486     10478     10477     10480     10481
     10478     10477     10480     10482     10478     10477     10480     10483
     10479     10477     10480     10481     10479     10477     10480     10482
     10479     10477     10480     10483     10480     10483     10486     10487
     10480     10483     10486     10488     10480     10483     10486     10489
     10481     10480     10483     10484     10481     10480     10483     10485
     10481     10480     10483     10486     10482     10480     10483     10484
     10482     10480     10483     10485     10482     10480     10483     10486
     10483     10486     10489     10490     10483     10486     10489     10491
     10483     10486     10489     10492     10484     10483     10486     10487
     10484     10483     10486     10488     10484     10483     10486     10489
     10485     10483     10486     10487     10485     10483     10486     10488
     10485     10483     10486     10489     10486     10489     10492     10493
     10486     10489     10492     10494     10486     10489     10492     10495
     10487     10486     10489     10490     10487     10486     10489     10491
     10487     10486     10489     10492     10488     10486     10489     10490
     10488     10486     10489     10491     10488     10486     10489     10492
     10489     10492     10495     10496     10489     10492     10495     10497
     10489     10492     10495     10498     10490     10489     10492     10493
     10490     10489     10492     10494     10490     10489     10492     10495
     10491     10489     10492     10493     10491     10489     10492     10494
     10491     10489     10492     10495     10492     10495     10498     10499
     10492     10495     10498     10500     10492     10495     10498     10501
     10493     10492     10495     10496     10493     10492     10495     10497
     10493     10492     10495     10498     10494     10492     10495     10496
     10494     10492     10495     10497     10494     10492     10495     10498
     10495     10498     10501     10502     10495     10498     10501     10503
     10495     10498     10501     10504     10496     10495     10498     10499
     10496     10495     10498     10500     10496     10495     10498     10501
     10497     10495     10498     10499     10497     10495     10498     10500
     10497     10495     10498     10501     10498     10501     10504     10505
     10498     10501     10504     10506     10498     10501     10504     10507
     10499     10498     10501     10502     10499     10498     10501     10503
     10499     10498     10501     10504     10500     10498     10501     10502
     10500     10498     10501     10503     10500     10498     10501     10504
     10501     10504     10507     10508     10501     10504     10507     10509
     10501     10504     10507     10510     10502     10501     10504     10505
     10502     10501     10504     10506     10502     10501     10504     10507
     10503     10501     10504     10505     10503     10501     10504     10506
     10503     10501     10504     10507     10504     10507     10510     10511
     10504     10507     10510     10512     10504     10507     10510     10513
     10505     10504     10507     10508     10505     10504     10507     10509
     10505     10504     10507     10510     10506     10504     10507     10508
     10506     10504     10507     10509     10506     10504     10507     10510
     10508     10507     10510     10511     10508     10507     10510     10512
     10508     10507     10510     10513     10509     10507     10510     10511
     10509     10507     10510     10512     10509     10507     10510     10513
     10514     10518     10521     10522     10514     10518     10521     10523
     10514     10518     10521     10528     10515     10514     10518     10519
     10515     10514     10518     10520     10515     10514     10518     10521
     10516     10514     10518     10519     10516     10514     10518     10520
     10516     10514     10518     10521     10517     10514     10518     10519
     10517     10514     10518     10520     10517     10514     10518     10521
     10518     10521     10528     10524     10519     10518     10521     10522
     10519     10518     10521     10523     10519     10518     10521     10528
     10520     10518     10521     10522     10520     10518     10521     10523
     10520     10518     10521     10528     10521     10528     10524     10525
     10521     10528     10524     10526     10521     10528     10524     10527
     10522     10521     10528     10524     10523     10521     10528     10524
     10524     10527     10529     10530     10524     10527     10529     10531
     10524     10527     10529     10532     10525     10524     10527     10529
     10526     10524     10527     10529     10527     10529     10532     10533
     10527     10529     10532     10534     10527     10529     10532     10540
     10528     10524     10527     10529     10529     10532     10534     10535
     10529     10532     10540     10541     10529     10532     10540     10542
     10529     10532     10540     10543     10530     10529     10532     10533
     10530     10529     10532     10534     10530     10529     10532     10540
     10531     10529     10532     10533     10531     10529     10532     10534
     10531     10529     10532     10540     10532     10534     10535     10536
     10532     10534     10535     10537     10532     10540     10543     10544
     10533     10532     10534     10535     10533     10532     10540     10541
     10533     10532     10540     10542     10533     10532     10540     10543
     10534     10532     10540     10541     10534     10532     10540     10542
     10534     10532     10540     10543     10534     10535     10537     10538
     10534     10535     10537     10539     10534     10535     10537     10549
     10535     10534     10532     10540     10535     10537     10549     10550
     10535     10537     10549     10551     10535     10537     10549     10552
     10536     10535     10537     10538     10536     10535     10537     10539
     10536     10535     10537     10549     10537     10549     10552     10553
     10537     10549     10552     10554     10537     10549     10552     10555
     10538     10537     10549     10550     10538     10537     10549     10551
     10538     10537     10549     10552     10539     10537     10549     10550
     10539     10537     10549     10551     10539     10537     10549     10552
     10540     10543     10544     10545     10540     10543     10544     10546
     10541     10540     10543     10544     10542     10540     10543     10544
     10543     10544     10546     10547     10543     10544     10546     10548
     10543     10544     10546     10593     10544     10546     10593     10594
     10544     10546     10593     10595     10544     10546     10593     10596
     10545     10544     10546     10547     10545     10544     10546     10548
     10545     10544     10546     10593     10546     10593     10596     10597
     10546     10593     10596     10598     10546     10593     10596     10599
     10547     10546     10593     10594     10547     10546     10593     10595
     10547     10546     10593     10596     10548     10546     10593     10594
     10548     10546     10593     10595     10548     10546     10593     10596
     10549     10552     10555     10556     10549     10552     10555     10557
     10549     10552     10555     10558     10550     10549     10552     10553
     10550     10549     10552     10554     10550     10549     10552     10555
     10551     10549     10552     10553     10551     10549     10552     10554
     10551     10549     10552     10555     10552     10555     10558     10559
     10552     10555     10558     10560     10552     10555     10558     10561
     10553     10552     10555     10556     10553     10552     10555     10557
     10553     10552     10555     10558     10554     10552     10555     10556
     10554     10552     10555     10557     10554     10552     10555     10558
     10555     10558     10561     10562     10555     10558     10561     10563
     10555     10558     10561     10564     10556     10555     10558     10559
     10556     10555     10558     10560     10556     10555     10558     10561
     10557     10555     10558     10559     10557     10555     10558     10560
     10557     10555     10558     10561     10558     10561     10564     10565
     10558     10561     10564     10566     10558     10561     10564     10567
     10559     10558     10561     10562     10559     10558     10561     10563
     10559     10558     10561     10564     10560     10558     10561     10562
     10560     10558     10561     10563     10560     10558     10561     10564
     10561     10564     10567     10568     10561     10564     10567     10569
     10561     10564     10567     10572     10562     10561     10564     10565
     10562     10561     10564     10566     10562     10561     10564     10567
     10563     10561     10564     10565     10563     10561     10564     10566
     10563     10561     10564     10567     10564     10567     10569     10570
     10564     10567     10569     10571     10564     10567     10569     10572
     10564     10567     10572     10569     10564     10567     10572     10573
     10564     10567     10572     10574     10565     10564     10567     10568
     10565     10564     10567     10569     10565     10564     10567     10572
     10566     10564     10567     10568     10566     10564     10567     10569
     10566     10564     10567     10572     10567     10569     10572     10573
     10567     10569     10572     10574     10567     10572     10569     10570
     10567     10572     10569     10571     10567     10572     10574     10575
     10567     10572     10574     10576     10567     10572     10574     10577
     10568     10567     10569     10570     10568     10567     10569     10571
     10568     10567     10569     10572     10568     10567     10572     10569
     10568     10567     10572     10573     10568     10567     10572     10574
     10569     10567     10572     10573     10569     10567     10572     10574
     10569     10572     10574     10575     10569     10572     10574     10576
     10569     10572     10574     10577     10570     10569     10567     10572
     10570     10569     10572     10573     10570     10569     10572     10574
     10571     10569     10567     10572     10571     10569     10572     10573
     10571     10569     10572     10574     10572     10574     10577     10578
     10572     10574     10577     10579     10572     10574     10577     10580
     10573     10572     10574     10575     10573     10572     10574     10576
     10573     10572     10574     10577     10574     10577     10580     10581
     10574     10577     10580     10582     10574     10577     10580     10583
     10575     10574     10577     10578     10575     10574     10577     10579
     10575     10574     10577     10580     10576     10574     10577     10578
     10576     10574     10577     10579     10576     10574     10577     10580
     10577     10580     10583     10584     10577     10580     10583     10585
     10577     10580     10583     10586     10578     10577     10580     10581
     10578     10577     10580     10582     10578     10577     10580     10583
     10579     10577     10580     10581     10579     10577     10580     10582
     10579     10577     10580     10583     10580     10583     10586     10587
     10580     10583     10586     10588     10580     10583     10586     10589
     10581     10580     10583     10584     10581     10580     10583     10585
     10581     10580     10583     10586     10582     10580     10583     10584
     10582     10580     10583     10585     10582     10580     10583     10586
     10583     10586     10589     10590     10583     10586     10589     10591
     10583     10586     10589     10592     10584     10583     10586     10587
     10584     10583     10586     10588     10584     10583     10586     10589
     10585     10583     10586     10587     10585     10583     10586     10588
     10585     10583     10586     10589     10587     10586     10589     10590
     10587     10586     10589     10591     10587     10586     10589     10592
     10588     10586     10589     10590     10588     10586     10589     10591
     10588     10586     10589     10592     10593     10596     10599     10600
     10593     10596     10599     10601     10593     10596     10599     10602
     10594     10593     10596     10597     10594     10593     10596     10598
     10594     10593     10596     10599     10595     10593     10596     10597
     10595     10593     10596     10598     10595     10593     10596     10599
     10596     10599     10602     10603     10596     10599     10602     10604
     10596     10599     10602     10605     10597     10596     10599     10600
     10597     10596     10599     10601     10597     10596     10599     10602
     10598     10596     10599     10600     10598     10596     10599     10601
     10598     10596     10599     10602     10599     10602     10605     10606
     10599     10602     10605     10607     10599     10602     10605     10608
     10600     10599     10602     10603     10600     10599     10602     10604
     10600     10599     10602     10605     10601     10599     10602     10603
     10601     10599     10602     10604     10601     10599     10602     10605
     10602     10605     10608     10609     10602     10605     10608     10610
     10602     10605     10608     10611     10603     10602     10605     10606
     10603     10602     10605     10607     10603     10602     10605     10608
     10604     10602     10605     10606     10604     10602     10605     10607
     10604     10602     10605     10608     10605     10608     10611     10612
     10605     10608     10611     10613     10605     10608     10611     10614
     10606     10605     10608     10609     10606     10605     10608     10610
     10606     10605     10608     10611     10607     10605     10608     10609
     10607     10605     10608     10610     10607     10605     10608     10611
     10608     10611     10614     10615     10608     10611     10614     10616
     10608     10611     10614     10617     10609     10608     10611     10612
     10609     10608     10611     10613     10609     10608     10611     10614
     10610     10608     10611     10612     10610     10608     10611     10613
     10610     10608     10611     10614     10611     10614     10617     10618
     10611     10614     10617     10619     10611     10614     10617     10620
     10612     10611     10614     10615     10612     10611     10614     10616
     10612     10611     10614     10617     10613     10611     10614     10615
     10613     10611     10614     10616     10613     10611     10614     10617
     10614     10617     10620     10621     10614     10617     10620     10622
     10614     10617     10620     10623     10615     10614     10617     10618
     10615     10614     10617     10619     10615     10614     10617     10620
     10616     10614     10617     10618     10616     10614     10617     10619
     10616     10614     10617     10620     10617     10620     10623     10624
     10617     10620     10623     10625     10617     10620     10623     10626
     10618     10617     10620     10621     10618     10617     10620     10622
     10618     10617     10620     10623     10619     10617     10620     10621
     10619     10617     10620     10622     10619     10617     10620     10623
     10620     10623     10626     10627     10620     10623     10626     10628
     10620     10623     10626     10629     10621     10620     10623     10624
     10621     10620     10623     10625     10621     10620     10623     10626
     10622     10620     10623     10624     10622     10620     10623     10625
     10622     10620     10623     10626     10623     10626     10629     10630
     10623     10626     10629     10631     10623     10626     10629     10632
     10624     10623     10626     10627     10624     10623     10626     10628
     10624     10623     10626     10629     10625     10623     10626     10627
     10625     10623     10626     10628     10625     10623     10626     10629
     10627     10626     10629     10630     10627     10626     10629     10631
     10627     10626     10629     10632     10628     10626     10629     10630
     10628     10626     10629     10631     10628     10626     10629     10632
     10633     10638     10640     10641     10633     10638     10642     10643
     10633     10638     10642     10644     10633     10638     10642     10649
     10634     10633     10636     10637     10634     10633     10638     10639
     10634     10633     10638     10640     10634     10633     10638     10642
     10635     10633     10636     10637     10635     10633     10638     10639
     10635     10633     10638     10640     10635     10633     10638     10642
     10636     10633     10638     10639     10636     10633     10638     10640
     10636     10633     10638     10642     10637     10636     10633     10638
     10638     10642     10649     10645     10639     10638     10640     10641
     10639     10638     10642     10643     10639     10638     10642     10644
     10639     10638     10642     10649     10640     10638     10642     10643
     10640     10638     10642     10644     10640     10638     10642     10649
     10641     10640     10638     10642     10642     10649     10645     10646
     10642     10649     10645     10647     10642     10649     10645     10648
     10643     10642     10649     10645     10644     10642     10649     10645
     10645     10648     10650     10651     10645     10648     10650     10652
     10645     10648     10650     10653     10646     10645     10648     10650
     10647     10645     10648     10650     10648     10650     10653     10654
     10648     10650     10653     10655     10648     10650     10653     10661
     10649     10645     10648     10650     10650     10653     10655     10656
     10650     10653     10661     10662     10650     10653     10661     10663
     10650     10653     10661     10664     10651     10650     10653     10654
     10651     10650     10653     10655     10651     10650     10653     10661
     10652     10650     10653     10654     10652     10650     10653     10655
     10652     10650     10653     10661     10653     10655     10656     10657
     10653     10655     10656     10658     10653     10661     10664     10665
     10654     10653     10655     10656     10654     10653     10661     10662
     10654     10653     10661     10663     10654     10653     10661     10664
     10655     10653     10661     10662     10655     10653     10661     10663
     10655     10653     10661     10664     10655     10656     10658     10659
     10655     10656     10658     10660     10655     10656     10658     10670
     10656     10655     10653     10661     10656     10658     10670     10671
     10656     10658     10670     10672     10656     10658     10670     10673
     10657     10656     10658     10659     10657     10656     10658     10660
     10657     10656     10658     10670     10658     10670     10673     10674
     10658     10670     10673     10675     10658     10670     10673     10676
     10659     10658     10670     10671     10659     10658     10670     10672
     10659     10658     10670     10673     10660     10658     10670     10671
     10660     10658     10670     10672     10660     10658     10670     10673
     10661     10664     10665     10666     10661     10664     10665     10667
     10662     10661     10664     10665     10663     10661     10664     10665
     10664     10665     10667     10668     10664     10665     10667     10669
     10664     10665     10667     10711     10665     10667     10711     10712
     10665     10667     10711     10713     10665     10667     10711     10714
     10666     10665     10667     10668     10666     10665     10667     10669
     10666     10665     10667     10711     10667     10711     10714     10715
     10667     10711     10714     10716     10667     10711     10714     10717
     10668     10667     10711     10712     10668     10667     10711     10713
     10668     10667     10711     10714     10669     10667     10711     10712
     10669     10667     10711     10713     10669     10667     10711     10714
     10670     10673     10676     10677     10670     10673     10676     10678
     10670     10673     10676     10679     10671     10670     10673     10674
     10671     10670     10673     10675     10671     10670     10673     10676
     10672     10670     10673     10674     10672     10670     10673     10675
     10672     10670     10673     10676     10673     10676     10679     10680
     10673     10676     10679     10681     10673     10676     10679     10682
     10674     10673     10676     10677     10674     10673     10676     10678
     10674     10673     10676     10679     10675     10673     10676     10677
     10675     10673     10676     10678     10675     10673     10676     10679
     10676     10679     10682     10683     10676     10679     10682     10684
     10676     10679     10682     10685     10677     10676     10679     10680
     10677     10676     10679     10681     10677     10676     10679     10682
     10678     10676     10679     10680     10678     10676     10679     10681
     10678     10676     10679     10682     10679     10682     10685     10686
     10679     10682     10685     10687     10679     10682     10685     10688
     10680     10679     10682     10683     10680     10679     10682     10684
     10680     10679     10682     10685     10681     10679     10682     10683
     10681     10679     10682     10684     10681     10679     10682     10685
     10682     10685     10688     10689     10682     10685     10688     10690
     10683     10682     10685     10686     10683     10682     10685     10687
     10683     10682     10685     10688     10684     10682     10685     10686
     10684     10682     10685     10687     10684     10682     10685     10688
     10685     10688     10690     10691     10685     10688     10690     10692
     10686     10685     10688     10689     10686     10685     10688     10690
     10687     10685     10688     10689     10687     10685     10688     10690
     10688     10690     10692     10693     10688     10690     10692     10694
     10688     10690     10692     10695     10689     10688     10690     10691
     10689     10688     10690     10692     10690     10692     10695     10696
     10690     10692     10695     10697     10690     10692     10695     10698
     10691     10690     10692     10693     10691     10690     10692     10694
     10691     10690     10692     10695     10692     10695     10698     10699
     10692     10695     10698     10700     10692     10695     10698     10701
     10693     10692     10695     10696     10693     10692     10695     10697
     10693     10692     10695     10698     10694     10692     10695     10696
     10694     10692     10695     10697     10694     10692     10695     10698
     10695     10698     10701     10702     10695     10698     10701     10703
     10695     10698     10701     10704     10696     10695     10698     10699
     10696     10695     10698     10700     10696     10695     10698     10701
     10697     10695     10698     10699     10697     10695     10698     10700
     10697     10695     10698     10701     10698     10701     10704     10705
     10698     10701     10704     10706     10698     10701     10704     10707
     10699     10698     10701     10702     10699     10698     10701     10703
     10699     10698     10701     10704     10700     10698     10701     10702
     10700     10698     10701     10703     10700     10698     10701     10704
     10701     10704     10707     10708     10701     10704     10707     10709
     10701     10704     10707     10710     10702     10701     10704     10705
     10702     10701     10704     10706     10702     10701     10704     10707
     10703     10701     10704     10705     10703     10701     10704     10706
     10703     10701     10704     10707     10705     10704     10707     10708
     10705     10704     10707     10709     10705     10704     10707     10710
     10706     10704     10707     10708     10706     10704     10707     10709
     10706     10704     10707     10710     10711     10714     10717     10718
     10711     10714     10717     10719     10711     10714     10717     10720
     10712     10711     10714     10715     10712     10711     10714     10716
     10712     10711     10714     10717     10713     10711     10714     10715
     10713     10711     10714     10716     10713     10711     10714     10717
     10714     10717     10720     10721     10714     10717     10720     10722
     10714     10717     10720     10723     10715     10714     10717     10718
     10715     10714     10717     10719     10715     10714     10717     10720
     10716     10714     10717     10718     10716     10714     10717     10719
     10716     10714     10717     10720     10717     10720     10723     10724
     10717     10720     10723     10725     10717     10720     10723     10726
     10718     10717     10720     10721     10718     10717     10720     10722
     10718     10717     10720     10723     10719     10717     10720     10721
     10719     10717     10720     10722     10719     10717     10720     10723
     10720     10723     10726     10727     10720     10723     10726     10728
     10720     10723     10726     10729     10721     10720     10723     10724
     10721     10720     10723     10725     10721     10720     10723     10726
     10722     10720     10723     10724     10722     10720     10723     10725
     10722     10720     10723     10726     10723     10726     10729     10730
     10723     10726     10729     10731     10723     10726     10729     10732
     10724     10723     10726     10727     10724     10723     10726     10728
     10724     10723     10726     10729     10725     10723     10726     10727
     10725     10723     10726     10728     10725     10723     10726     10729
     10726     10729     10732     10733     10726     10729     10732     10734
     10726     10729     10732     10735     10727     10726     10729     10730
     10727     10726     10729     10731     10727     10726     10729     10732
     10728     10726     10729     10730     10728     10726     10729     10731
     10728     10726     10729     10732     10729     10732     10735     10736
     10729     10732     10735     10737     10729     10732     10735     10738
     10730     10729     10732     10733     10730     10729     10732     10734
     10730     10729     10732     10735     10731     10729     10732     10733
     10731     10729     10732     10734     10731     10729     10732     10735
     10732     10735     10738     10739     10732     10735     10738     10740
     10732     10735     10738     10741     10733     10732     10735     10736
     10733     10732     10735     10737     10733     10732     10735     10738
     10734     10732     10735     10736     10734     10732     10735     10737
     10734     10732     10735     10738     10735     10738     10741     10742
     10735     10738     10741     10743     10735     10738     10741     10744
     10736     10735     10738     10739     10736     10735     10738     10740
     10736     10735     10738     10741     10737     10735     10738     10739
     10737     10735     10738     10740     10737     10735     10738     10741
     10738     10741     10744     10745     10738     10741     10744     10746
     10738     10741     10744     10747     10739     10738     10741     10742
     10739     10738     10741     10743     10739     10738     10741     10744
     10740     10738     10741     10742     10740     10738     10741     10743
     10740     10738     10741     10744     10741     10744     10747     10748
     10741     10744     10747     10749     10741     10744     10747     10750
     10742     10741     10744     10745     10742     10741     10744     10746
     10742     10741     10744     10747     10743     10741     10744     10745
     10743     10741     10744     10746     10743     10741     10744     10747
     10744     10747     10750     10751     10744     10747     10750     10752
     10744     10747     10750     10753     10745     10744     10747     10748
     10745     10744     10747     10749     10745     10744     10747     10750
     10746     10744     10747     10748     10746     10744     10747     10749
     10746     10744     10747     10750     10748     10747     10750     10751
     10748     10747     10750     10752     10748     10747     10750     10753
     10749     10747     10750     10751     10749     10747     10750     10752
     10749     10747     10750     10753     10754     10760     10757     10758
     10754     10760     10757     10759     10754     10760     10757     10761
     10754     10765     10767     10768     10754     10765     10769     10770
     10754     10765     10769     10771     10754     10765     10769     10775
     10755     10754     10760     10757     10755     10754     10765     10766
     10755     10754     10765     10767     10755     10754     10765     10769
     10756     10754     10760     10757     10756     10754     10765     10766
     10756     10754     10765     10767     10756     10754     10765     10769
     10757     10760     10754     10765     10757     10761     10762     10763
     10757     10761     10762     10764     10757     10761     10762     10797
     10758     10757     10761     10762     10759     10757     10761     10762
     10760     10754     10765     10766     10760     10754     10765     10767
     10760     10754     10765     10769     10760     10757     10761     10762
     10761     10762     10797     10798     10761     10762     10797     10799
     10761     10762     10797     10805     10762     10797     10799     10800
     10762     10797     10805     10806     10762     10797     10805     10807
     10762     10797     10805     10808     10763     10762     10797     10798
     10763     10762     10797     10799     10763     10762     10797     10805
     10764     10762     10797     10798     10764     10762     10797     10799
     10764     10762     10797     10805     10765     10769     10775     10772
     10766     10765     10767     10768     10766     10765     10769     10770
     10766     10765     10769     10771     10766     10765     10769     10775
     10767     10765     10769     10770     10767     10765     10769     10771
     10767     10765     10769     10775     10768     10767     10765     10769
     10769     10775     10772     10773     10769     10775     10772     10774
     10769     10775     10772     10776     10770     10769     10775     10772
     10771     10769     10775     10772     10772     10776     10777     10778
     10772     10776     10777     10779     10772     10776     10777     10780
     10773     10772     10776     10777     10774     10772     10776     10777
     10775     10772     10776     10777     10776     10777     10780     10781
     10776     10777     10780     10782     10776     10777     10780     10788
     10777     10780     10782     10783     10777     10780     10788     10789
     10777     10780     10788     10790     10777     10780     10788     10791
     10778     10777     10780     10781     10778     10777     10780     10782
     10778     10777     10780     10788     10779     10777     10780     10781
     10779     10777     10780     10782     10779     10777     10780     10788
     10780     10782     10783     10784     10780     10782     10783     10785
     10780     10788     10791     10792     10781     10780     10782     10783
     10781     10780     10788     10789     10781     10780     10788     10790
     10781     10780     10788     10791     10782     10780     10788     10789
     10782     10780     10788     10790     10782     10780     10788     10791
     10782     10783     10785     10786     10782     10783     10785     10787
     10782     10783     10785     10814     10783     10782     10780     10788
     10783     10785     10814     10815     10783     10785     10814     10816
     10783     10785     10814     10817     10784     10783     10785     10786
     10784     10783     10785     10787     10784     10783     10785     10814
     10785     10814     10817     10818     10785     10814     10817     10819
     10785     10814     10817     10820     10786     10785     10814     10815
     10786     10785     10814     10816     10786     10785     10814     10817
     10787     10785     10814     10815     10787     10785     10814     10816
     10787     10785     10814     10817     10788     10791     10792     10793
     10788     10791     10792     10794     10789     10788     10791     10792
     10790     10788     10791     10792     10791     10792     10794     10795
     10791     10792     10794     10796     10791     10792     10794     10861
     10792     10794     10861     10862     10792     10794     10861     10863
     10792     10794     10861     10864     10793     10792     10794     10795
     10793     10792     10794     10796     10793     10792     10794     10861
     10794     10861     10864     10865     10794     10861     10864     10866
     10794     10861     10864     10867     10795     10794     10861     10862
     10795     10794     10861     10863     10795     10794     10861     10864
     10796     10794     10861     10862     10796     10794     10861     10863
     10796     10794     10861     10864     10797     10799     10800     10801
     10797     10799     10800     10802     10797     10805     10808     10809
     10798     10797     10799     10800     10798     10797     10805     10806
     10798     10797     10805     10807     10798     10797     10805     10808
     10799     10797     10805     10806     10799     10797     10805     10807
     10799     10797     10805     10808     10799     10800     10802     10803
     10799     10800     10802     10804     10799     10800     10802     10904
     10800     10799     10797     10805     10800     10802     10904     10905
     10800     10802     10904     10906     10800     10802     10904     10907
     10801     10800     10802     10803     10801     10800     10802     10804
     10801     10800     10802     10904     10802     10904     10907     10908
     10802     10904     10907     10909     10802     10904     10907     10910
     10803     10802     10904     10905     10803     10802     10904     10906
     10803     10802     10904     10907     10804     10802     10904     10905
     10804     10802     10904     10906     10804     10802     10904     10907
     10805     10808     10809     10810     10805     10808     10809     10811
     10806     10805     10808     10809     10807     10805     10808     10809
     10808     10809     10811     10812     10808     10809     10811     10813
     10808     10809     10811     10951     10809     10811     10951     10952
     10809     10811     10951     10953     10809     10811     10951     10954
     10810     10809     10811     10812     10810     10809     10811     10813
     10810     10809     10811     10951     10811     10951     10954     10955
     10811     10951     10954     10956     10811     10951     10954     10957
     10812     10811     10951     10952     10812     10811     10951     10953
     10812     10811     10951     10954     10813     10811     10951     10952
     10813     10811     10951     10953     10813     10811     10951     10954
     10814     10817     10820     10821     10814     10817     10820     10822
     10814     10817     10820     10823     10815     10814     10817     10818
     10815     10814     10817     10819     10815     10814     10817     10820
     10816     10814     10817     10818     10816     10814     10817     10819
     10816     10814     10817     10820     10817     10820     10823     10824
     10817     10820     10823     10825     10817     10820     10823     10826
     10818     10817     10820     10821     10818     10817     10820     10822
     10818     10817     10820     10823     10819     10817     10820     10821
     10819     10817     10820     10822     10819     10817     10820     10823
     10820     10823     10826     10827     10820     10823     10826     10828
     10820     10823     10826     10829     10821     10820     10823     10824
     10821     10820     10823     10825     10821     10820     10823     10826
     10822     10820     10823     10824     10822     10820     10823     10825
     10822     10820     10823     10826     10823     10826     10829     10830
     10823     10826     10829     10831     10823     10826     10829     10832
     10824     10823     10826     10827     10824     10823     10826     10828
     10824     10823     10826     10829     10825     10823     10826     10827
     10825     10823     10826     10828     10825     10823     10826     10829
     10826     10829     10832     10833     10826     10829     10832     10834
     10826     10829     10832     10835     10827     10826     10829     10830
     10827     10826     10829     10831     10827     10826     10829     10832
     10828     10826     10829     10830     10828     10826     10829     10831
     10828     10826     10829     10832     10829     10832     10835     10836
     10829     10832     10835     10837     10829     10832     10835     10838
     10830     10829     10832     10833     10830     10829     10832     10834
     10830     10829     10832     10835     10831     10829     10832     10833
     10831     10829     10832     10834     10831     10829     10832     10835
     10832     10835     10838     10839     10832     10835     10838     10840
     10833     10832     10835     10836     10833     10832     10835     10837
     10833     10832     10835     10838     10834     10832     10835     10836
     10834     10832     10835     10837     10834     10832     10835     10838
     10835     10838     10840     10841     10835     10838     10840     10842
     10836     10835     10838     10839     10836     10835     10838     10840
     10837     10835     10838     10839     10837     10835     10838     10840
     10838     10840     10842     10843     10838     10840     10842     10844
     10838     10840     10842     10845     10839     10838     10840     10841
     10839     10838     10840     10842     10840     10842     10845     10846
     10840     10842     10845     10847     10840     10842     10845     10848
     10841     10840     10842     10843     10841     10840     10842     10844
     10841     10840     10842     10845     10842     10845     10848     10849
     10842     10845     10848     10850     10842     10845     10848     10851
     10843     10842     10845     10846     10843     10842     10845     10847
     10843     10842     10845     10848     10844     10842     10845     10846
     10844     10842     10845     10847     10844     10842     10845     10848
     10845     10848     10851     10852     10845     10848     10851     10853
     10845     10848     10851     10854     10846     10845     10848     10849
     10846     10845     10848     10850     10846     10845     10848     10851
     10847     10845     10848     10849     10847     10845     10848     10850
     10847     10845     10848     10851     10848     10851     10854     10855
     10848     10851     10854     10856     10848     10851     10854     10857
     10849     10848     10851     10852     10849     10848     10851     10853
     10849     10848     10851     10854     10850     10848     10851     10852
     10850     10848     10851     10853     10850     10848     10851     10854
     10851     10854     10857     10858     10851     10854     10857     10859
     10851     10854     10857     10860     10852     10851     10854     10855
     10852     10851     10854     10856     10852     10851     10854     10857
     10853     10851     10854     10855     10853     10851     10854     10856
     10853     10851     10854     10857     10855     10854     10857     10858
     10855     10854     10857     10859     10855     10854     10857     10860
     10856     10854     10857     10858     10856     10854     10857     10859
     10856     10854     10857     10860     10861     10864     10867     10868
     10861     10864     10867     10869     10861     10864     10867     10870
     10862     10861     10864     10865     10862     10861     10864     10866
     10862     10861     10864     10867     10863     10861     10864     10865
     10863     10861     10864     10866     10863     10861     10864     10867
     10864     10867     10870     10871     10864     10867     10870     10872
     10864     10867     10870     10873     10865     10864     10867     10868
     10865     10864     10867     10869     10865     10864     10867     10870
     10866     10864     10867     10868     10866     10864     10867     10869
     10866     10864     10867     10870     10867     10870     10873     10874
     10867     10870     10873     10875     10867     10870     10873     10876
     10868     10867     10870     10871     10868     10867     10870     10872
     10868     10867     10870     10873     10869     10867     10870     10871
     10869     10867     10870     10872     10869     10867     10870     10873
     10870     10873     10876     10877     10870     10873     10876     10878
     10870     10873     10876     10879     10871     10870     10873     10874
     10871     10870     10873     10875     10871     10870     10873     10876
     10872     10870     10873     10874     10872     10870     10873     10875
     10872     10870     10873     10876     10873     10876     10879     10880
     10873     10876     10879     10881     10873     10876     10879     10882
     10874     10873     10876     10877     10874     10873     10876     10878
     10874     10873     10876     10879     10875     10873     10876     10877
     10875     10873     10876     10878     10875     10873     10876     10879
     10876     10879     10882     10883     10876     10879     10882     10884
     10876     10879     10882     10885     10877     10876     10879     10880
     10877     10876     10879     10881     10877     10876     10879     10882
     10878     10876     10879     10880     10878     10876     10879     10881
     10878     10876     10879     10882     10879     10882     10885     10886
     10879     10882     10885     10887     10879     10882     10885     10888
     10880     10879     10882     10883     10880     10879     10882     10884
     10880     10879     10882     10885     10881     10879     10882     10883
     10881     10879     10882     10884     10881     10879     10882     10885
     10882     10885     10888     10889     10882     10885     10888     10890
     10882     10885     10888     10891     10883     10882     10885     10886
     10883     10882     10885     10887     10883     10882     10885     10888
     10884     10882     10885     10886     10884     10882     10885     10887
     10884     10882     10885     10888     10885     10888     10891     10892
     10885     10888     10891     10893     10885     10888     10891     10894
     10886     10885     10888     10889     10886     10885     10888     10890
     10886     10885     10888     10891     10887     10885     10888     10889
     10887     10885     10888     10890     10887     10885     10888     10891
     10888     10891     10894     10895     10888     10891     10894     10896
     10888     10891     10894     10897     10889     10888     10891     10892
     10889     10888     10891     10893     10889     10888     10891     10894
     10890     10888     10891     10892     10890     10888     10891     10893
     10890     10888     10891     10894     10891     10894     10897     10898
     10891     10894     10897     10899     10891     10894     10897     10900
     10892     10891     10894     10895     10892     10891     10894     10896
     10892     10891     10894     10897     10893     10891     10894     10895
     10893     10891     10894     10896     10893     10891     10894     10897
     10894     10897     10900     10901     10894     10897     10900     10902
     10894     10897     10900     10903     10895     10894     10897     10898
     10895     10894     10897     10899     10895     10894     10897     10900
     10896     10894     10897     10898     10896     10894     10897     10899
     10896     10894     10897     10900     10898     10897     10900     10901
     10898     10897     10900     10902     10898     10897     10900     10903
     10899     10897     10900     10901     10899     10897     10900     10902
     10899     10897     10900     10903     10904     10907     10910     10911
     10904     10907     10910     10912     10904     10907     10910     10913
     10905     10904     10907     10908     10905     10904     10907     10909
     10905     10904     10907     10910     10906     10904     10907     10908
     10906     10904     10907     10909     10906     10904     10907     10910
     10907     10910     10913     10914     10907     10910     10913     10915
     10907     10910     10913     10916     10908     10907     10910     10911
     10908     10907     10910     10912     10908     10907     10910     10913
     10909     10907     10910     10911     10909     10907     10910     10912
     10909     10907     10910     10913     10910     10913     10916     10917
     10910     10913     10916     10918     10910     10913     10916     10919
     10911     10910     10913     10914     10911     10910     10913     10915
     10911     10910     10913     10916     10912     10910     10913     10914
     10912     10910     10913     10915     10912     10910     10913     10916
     10913     10916     10919     10920     10913     10916     10919     10921
     10913     10916     10919     10922     10914     10913     10916     10917
     10914     10913     10916     10918     10914     10913     10916     10919
     10915     10913     10916     10917     10915     10913     10916     10918
     10915     10913     10916     10919     10916     10919     10922     10923
     10916     10919     10922     10924     10916     10919     10922     10925
     10917     10916     10919     10920     10917     10916     10919     10921
     10917     10916     10919     10922     10918     10916     10919     10920
     10918     10916     10919     10921     10918     10916     10919     10922
     10919     10922     10925     10926     10919     10922     10925     10927
     10919     10922     10925     10928     10920     10919     10922     10923
     10920     10919     10922     10924     10920     10919     10922     10925
     10921     10919     10922     10923     10921     10919     10922     10924
     10921     10919     10922     10925     10922     10925     10928     10929
     10922     10925     10928     10930     10923     10922     10925     10926
     10923     10922     10925     10927     10923     10922     10925     10928
     10924     10922     10925     10926     10924     10922     10925     10927
     10924     10922     10925     10928     10925     10928     10930     10931
     10925     10928     10930     10932     10926     10925     10928     10929
     10926     10925     10928     10930     10927     10925     10928     10929
     10927     10925     10928     10930     10928     10930     10932     10933
     10928     10930     10932     10934     10928     10930     10932     10935
     10929     10928     10930     10931     10929     10928     10930     10932
     10930     10932     10935     10936     10930     10932     10935     10937
     10930     10932     10935     10938     10931     10930     10932     10933
     10931     10930     10932     10934     10931     10930     10932     10935
     10932     10935     10938     10939     10932     10935     10938     10940
     10932     10935     10938     10941     10933     10932     10935     10936
     10933     10932     10935     10937     10933     10932     10935     10938
     10934     10932     10935     10936     10934     10932     10935     10937
     10934     10932     10935     10938     10935     10938     10941     10942
     10935     10938     10941     10943     10935     10938     10941     10944
     10936     10935     10938     10939     10936     10935     10938     10940
     10936     10935     10938     10941     10937     10935     10938     10939
     10937     10935     10938     10940     10937     10935     10938     10941
     10938     10941     10944     10945     10938     10941     10944     10946
     10938     10941     10944     10947     10939     10938     10941     10942
     10939     10938     10941     10943     10939     10938     10941     10944
     10940     10938     10941     10942     10940     10938     10941     10943
     10940     10938     10941     10944     10941     10944     10947     10948
     10941     10944     10947     10949     10941     10944     10947     10950
     10942     10941     10944     10945     10942     10941     10944     10946
     10942     10941     10944     10947     10943     10941     10944     10945
     10943     10941     10944     10946     10943     10941     10944     10947
     10945     10944     10947     10948     10945     10944     10947     10949
     10945     10944     10947     10950     10946     10944     10947     10948
     10946     10944     10947     10949     10946     10944     10947     10950
     10951     10954     10957     10958     10951     10954     10957     10959
     10951     10954     10957     10960     10952     10951     10954     10955
     10952     10951     10954     10956     10952     10951     10954     10957
     10953     10951     10954     10955     10953     10951     10954     10956
     10953     10951     10954     10957     10954     10957     10960     10961
     10954     10957     10960     10962     10954     10957     10960     10963
     10955     10954     10957     10958     10955     10954     10957     10959
     10955     10954     10957     10960     10956     10954     10957     10958
     10956     10954     10957     10959     10956     10954     10957     10960
     10957     10960     10963     10964     10957     10960     10963     10965
     10957     10960     10963     10966     10958     10957     10960     10961
     10958     10957     10960     10962     10958     10957     10960     10963
     10959     10957     10960     10961     10959     10957     10960     10962
     10959     10957     10960     10963     10960     10963     10966     10967
     10960     10963     10966     10968     10960     10963     10966     10969
     10961     10960     10963     10964     10961     10960     10963     10965
     10961     10960     10963     10966     10962     10960     10963     10964
     10962     10960     10963     10965     10962     10960     10963     10966
     10963     10966     10969     10970     10963     10966     10969     10971
     10963     10966     10969     10972     10964     10963     10966     10967
     10964     10963     10966     10968     10964     10963     10966     10969
     10965     10963     10966     10967     10965     10963     10966     10968
     10965     10963     10966     10969     10966     10969     10972     10973
     10966     10969     10972     10974     10966     10969     10972     10975
     10967     10966     10969     10970     10967     10966     10969     10971
     10967     10966     10969     10972     10968     10966     10969     10970
     10968     10966     10969     10971     10968     10966     10969     10972
     10969     10972     10975     10976     10969     10972     10975     10977
     10969     10972     10975     10978     10970     10969     10972     10973
     10970     10969     10972     10974     10970     10969     10972     10975
     10971     10969     10972     10973     10971     10969     10972     10974
     10971     10969     10972     10975     10972     10975     10978     10979
     10972     10975     10978     10980     10972     10975     10978     10981
     10973     10972     10975     10976     10973     10972     10975     10977
     10973     10972     10975     10978     10974     10972     10975     10976
     10974     10972     10975     10977     10974     10972     10975     10978
     10975     10978     10981     10982     10975     10978     10981     10983
     10975     10978     10981     10984     10976     10975     10978     10979
     10976     10975     10978     10980     10976     10975     10978     10981
     10977     10975     10978     10979     10977     10975     10978     10980
     10977     10975     10978     10981     10978     10981     10984     10985
     10978     10981     10984     10986     10978     10981     10984     10987
     10979     10978     10981     10982     10979     10978     10981     10983
     10979     10978     10981     10984     10980     10978     10981     10982
     10980     10978     10981     10983     10980     10978     10981     10984
     10981     10984     10987     10988     10981     10984     10987     10989
     10981     10984     10987     10990     10982     10981     10984     10985
     10982     10981     10984     10986     10982     10981     10984     10987
     10983     10981     10984     10985     10983     10981     10984     10986
     10983     10981     10984     10987     10984     10987     10990     10991
     10984     10987     10990     10992     10984     10987     10990     10993
     10985     10984     10987     10988     10985     10984     10987     10989
     10985     10984     10987     10990     10986     10984     10987     10988
     10986     10984     10987     10989     10986     10984     10987     10990
     10988     10987     10990     10991     10988     10987     10990     10992
     10988     10987     10990     10993     10989     10987     10990     10991
     10989     10987     10990     10992     10989     10987     10990     10993
     10994     10998     11001     11002     10994     10998     11001     11003
     10994     10998     11001     11008     10995     10994     10998     10999
     10995     10994     10998     11000     10995     10994     10998     11001
     10996     10994     10998     10999     10996     10994     10998     11000
     10996     10994     10998     11001     10997     10994     10998     10999
     10997     10994     10998     11000     10997     10994     10998     11001
     10998     11001     11008     11004     10999     10998     11001     11002
     10999     10998     11001     11003     10999     10998     11001     11008
     11000     10998     11001     11002     11000     10998     11001     11003
     11000     10998     11001     11008     11001     11008     11004     11005
     11001     11008     11004     11006     11001     11008     11004     11007
     11002     11001     11008     11004     11003     11001     11008     11004
     11004     11007     11009     11010     11004     11007     11009     11011
     11004     11007     11009     11012     11005     11004     11007     11009
     11006     11004     11007     11009     11007     11009     11012     11013
     11007     11009     11012     11014     11007     11009     11012     11020
     11008     11004     11007     11009     11009     11012     11014     11015
     11009     11012     11020     11021     11009     11012     11020     11022
     11009     11012     11020     11023     11010     11009     11012     11013
     11010     11009     11012     11014     11010     11009     11012     11020
     11011     11009     11012     11013     11011     11009     11012     11014
     11011     11009     11012     11020     11012     11014     11015     11016
     11012     11014     11015     11017     11012     11020     11023     11024
     11013     11012     11014     11015     11013     11012     11020     11021
     11013     11012     11020     11022     11013     11012     11020     11023
     11014     11012     11020     11021     11014     11012     11020     11022
     11014     11012     11020     11023     11014     11015     11017     11018
     11014     11015     11017     11019     11014     11015     11017     11029
     11015     11014     11012     11020     11015     11017     11029     11030
     11015     11017     11029     11031     11015     11017     11029     11032
     11016     11015     11017     11018     11016     11015     11017     11019
     11016     11015     11017     11029     11017     11029     11032     11033
     11017     11029     11032     11034     11017     11029     11032     11035
     11018     11017     11029     11030     11018     11017     11029     11031
     11018     11017     11029     11032     11019     11017     11029     11030
     11019     11017     11029     11031     11019     11017     11029     11032
     11020     11023     11024     11025     11020     11023     11024     11026
     11021     11020     11023     11024     11022     11020     11023     11024
     11023     11024     11026     11027     11023     11024     11026     11028
     11023     11024     11026     11073     11024     11026     11073     11074
     11024     11026     11073     11075     11024     11026     11073     11076
     11025     11024     11026     11027     11025     11024     11026     11028
     11025     11024     11026     11073     11026     11073     11076     11077
     11026     11073     11076     11078     11026     11073     11076     11079
     11027     11026     11073     11074     11027     11026     11073     11075
     11027     11026     11073     11076     11028     11026     11073     11074
     11028     11026     11073     11075     11028     11026     11073     11076
     11029     11032     11035     11036     11029     11032     11035     11037
     11029     11032     11035     11038     11030     11029     11032     11033
     11030     11029     11032     11034     11030     11029     11032     11035
     11031     11029     11032     11033     11031     11029     11032     11034
     11031     11029     11032     11035     11032     11035     11038     11039
     11032     11035     11038     11040     11032     11035     11038     11041
     11033     11032     11035     11036     11033     11032     11035     11037
     11033     11032     11035     11038     11034     11032     11035     11036
     11034     11032     11035     11037     11034     11032     11035     11038
     11035     11038     11041     11042     11035     11038     11041     11043
     11035     11038     11041     11044     11036     11035     11038     11039
     11036     11035     11038     11040     11036     11035     11038     11041
     11037     11035     11038     11039     11037     11035     11038     11040
     11037     11035     11038     11041     11038     11041     11044     11045
     11038     11041     11044     11046     11038     11041     11044     11047
     11039     11038     11041     11042     11039     11038     11041     11043
     11039     11038     11041     11044     11040     11038     11041     11042
     11040     11038     11041     11043     11040     11038     11041     11044
     11041     11044     11047     11048     11041     11044     11047     11049
     11041     11044     11047     11052     11042     11041     11044     11045
     11042     11041     11044     11046     11042     11041     11044     11047
     11043     11041     11044     11045     11043     11041     11044     11046
     11043     11041     11044     11047     11044     11047     11049     11050
     11044     11047     11049     11051     11044     11047     11049     11052
     11044     11047     11052     11049     11044     11047     11052     11053
     11044     11047     11052     11054     11045     11044     11047     11048
     11045     11044     11047     11049     11045     11044     11047     11052
     11046     11044     11047     11048     11046     11044     11047     11049
     11046     11044     11047     11052     11047     11049     11052     11053
     11047     11049     11052     11054     11047     11052     11049     11050
     11047     11052     11049     11051     11047     11052     11054     11055
     11047     11052     11054     11056     11047     11052     11054     11057
     11048     11047     11049     11050     11048     11047     11049     11051
     11048     11047     11049     11052     11048     11047     11052     11049
     11048     11047     11052     11053     11048     11047     11052     11054
     11049     11047     11052     11053     11049     11047     11052     11054
     11049     11052     11054     11055     11049     11052     11054     11056
     11049     11052     11054     11057     11050     11049     11047     11052
     11050     11049     11052     11053     11050     11049     11052     11054
     11051     11049     11047     11052     11051     11049     11052     11053
     11051     11049     11052     11054     11052     11054     11057     11058
     11052     11054     11057     11059     11052     11054     11057     11060
     11053     11052     11054     11055     11053     11052     11054     11056
     11053     11052     11054     11057     11054     11057     11060     11061
     11054     11057     11060     11062     11054     11057     11060     11063
     11055     11054     11057     11058     11055     11054     11057     11059
     11055     11054     11057     11060     11056     11054     11057     11058
     11056     11054     11057     11059     11056     11054     11057     11060
     11057     11060     11063     11064     11057     11060     11063     11065
     11057     11060     11063     11066     11058     11057     11060     11061
     11058     11057     11060     11062     11058     11057     11060     11063
     11059     11057     11060     11061     11059     11057     11060     11062
     11059     11057     11060     11063     11060     11063     11066     11067
     11060     11063     11066     11068     11060     11063     11066     11069
     11061     11060     11063     11064     11061     11060     11063     11065
     11061     11060     11063     11066     11062     11060     11063     11064
     11062     11060     11063     11065     11062     11060     11063     11066
     11063     11066     11069     11070     11063     11066     11069     11071
     11063     11066     11069     11072     11064     11063     11066     11067
     11064     11063     11066     11068     11064     11063     11066     11069
     11065     11063     11066     11067     11065     11063     11066     11068
     11065     11063     11066     11069     11067     11066     11069     11070
     11067     11066     11069     11071     11067     11066     11069     11072
     11068     11066     11069     11070     11068     11066     11069     11071
     11068     11066     11069     11072     11073     11076     11079     11080
     11073     11076     11079     11081     11073     11076     11079     11082
     11074     11073     11076     11077     11074     11073     11076     11078
     11074     11073     11076     11079     11075     11073     11076     11077
     11075     11073     11076     11078     11075     11073     11076     11079
     11076     11079     11082     11083     11076     11079     11082     11084
     11076     11079     11082     11085     11077     11076     11079     11080
     11077     11076     11079     11081     11077     11076     11079     11082
     11078     11076     11079     11080     11078     11076     11079     11081
     11078     11076     11079     11082     11079     11082     11085     11086
     11079     11082     11085     11087     11079     11082     11085     11088
     11080     11079     11082     11083     11080     11079     11082     11084
     11080     11079     11082     11085     11081     11079     11082     11083
     11081     11079     11082     11084     11081     11079     11082     11085
     11082     11085     11088     11089     11082     11085     11088     11090
     11082     11085     11088     11091     11083     11082     11085     11086
     11083     11082     11085     11087     11083     11082     11085     11088
     11084     11082     11085     11086     11084     11082     11085     11087
     11084     11082     11085     11088     11085     11088     11091     11092
     11085     11088     11091     11093     11085     11088     11091     11094
     11086     11085     11088     11089     11086     11085     11088     11090
     11086     11085     11088     11091     11087     11085     11088     11089
     11087     11085     11088     11090     11087     11085     11088     11091
     11088     11091     11094     11095     11088     11091     11094     11096
     11088     11091     11094     11097     11089     11088     11091     11092
     11089     11088     11091     11093     11089     11088     11091     11094
     11090     11088     11091     11092     11090     11088     11091     11093
     11090     11088     11091     11094     11091     11094     11097     11098
     11091     11094     11097     11099     11091     11094     11097     11100
     11092     11091     11094     11095     11092     11091     11094     11096
     11092     11091     11094     11097     11093     11091     11094     11095
     11093     11091     11094     11096     11093     11091     11094     11097
     11094     11097     11100     11101     11094     11097     11100     11102
     11094     11097     11100     11103     11095     11094     11097     11098
     11095     11094     11097     11099     11095     11094     11097     11100
     11096     11094     11097     11098     11096     11094     11097     11099
     11096     11094     11097     11100     11097     11100     11103     11104
     11097     11100     11103     11105     11097     11100     11103     11106
     11098     11097     11100     11101     11098     11097     11100     11102
     11098     11097     11100     11103     11099     11097     11100     11101
     11099     11097     11100     11102     11099     11097     11100     11103
     11100     11103     11106     11107     11100     11103     11106     11108
     11100     11103     11106     11109     11101     11100     11103     11104
     11101     11100     11103     11105     11101     11100     11103     11106
     11102     11100     11103     11104     11102     11100     11103     11105
     11102     11100     11103     11106     11103     11106     11109     11110
     11103     11106     11109     11111     11103     11106     11109     11112
     11104     11103     11106     11107     11104     11103     11106     11108
     11104     11103     11106     11109     11105     11103     11106     11107
     11105     11103     11106     11108     11105     11103     11106     11109
     11107     11106     11109     11110     11107     11106     11109     11111
     11107     11106     11109     11112     11108     11106     11109     11110
     11108     11106     11109     11111     11108     11106     11109     11112
     11113     11117     11120     11121     11113     11117     11120     11122
     11113     11117     11120     11127     11114     11113     11117     11118
     11114     11113     11117     11119     11114     11113     11117     11120
     11115     11113     11117     11118     11115     11113     11117     11119
     11115     11113     11117     11120     11116     11113     11117     11118
     11116     11113     11117     11119     11116     11113     11117     11120
     11117     11120     11127     11123     11118     11117     11120     11121
     11118     11117     11120     11122     11118     11117     11120     11127
     11119     11117     11120     11121     11119     11117     11120     11122
     11119     11117     11120     11127     11120     11127     11123     11124
     11120     11127     11123     11125     11120     11127     11123     11126
     11121     11120     11127     11123     11122     11120     11127     11123
     11123     11126     11128     11129     11123     11126     11128     11130
     11123     11126     11128     11131     11124     11123     11126     11128
     11125     11123     11126     11128     11126     11128     11131     11132
     11126     11128     11131     11133     11126     11128     11131     11139
     11127     11123     11126     11128     11128     11131     11133     11134
     11128     11131     11139     11140     11128     11131     11139     11141
     11128     11131     11139     11142     11129     11128     11131     11132
     11129     11128     11131     11133     11129     11128     11131     11139
     11130     11128     11131     11132     11130     11128     11131     11133
     11130     11128     11131     11139     11131     11133     11134     11135
     11131     11133     11134     11136     11131     11139     11142     11143
     11132     11131     11133     11134     11132     11131     11139     11140
     11132     11131     11139     11141     11132     11131     11139     11142
     11133     11131     11139     11140     11133     11131     11139     11141
     11133     11131     11139     11142     11133     11134     11136     11137
     11133     11134     11136     11138     11133     11134     11136     11148
     11134     11133     11131     11139     11134     11136     11148     11149
     11134     11136     11148     11150     11134     11136     11148     11151
     11135     11134     11136     11137     11135     11134     11136     11138
     11135     11134     11136     11148     11136     11148     11151     11152
     11136     11148     11151     11153     11136     11148     11151     11154
     11137     11136     11148     11149     11137     11136     11148     11150
     11137     11136     11148     11151     11138     11136     11148     11149
     11138     11136     11148     11150     11138     11136     11148     11151
     11139     11142     11143     11144     11139     11142     11143     11145
     11140     11139     11142     11143     11141     11139     11142     11143
     11142     11143     11145     11146     11142     11143     11145     11147
     11142     11143     11145     11192     11143     11145     11192     11193
     11143     11145     11192     11194     11143     11145     11192     11195
     11144     11143     11145     11146     11144     11143     11145     11147
     11144     11143     11145     11192     11145     11192     11195     11196
     11145     11192     11195     11197     11145     11192     11195     11198
     11146     11145     11192     11193     11146     11145     11192     11194
     11146     11145     11192     11195     11147     11145     11192     11193
     11147     11145     11192     11194     11147     11145     11192     11195
     11148     11151     11154     11155     11148     11151     11154     11156
     11148     11151     11154     11157     11149     11148     11151     11152
     11149     11148     11151     11153     11149     11148     11151     11154
     11150     11148     11151     11152     11150     11148     11151     11153
     11150     11148     11151     11154     11151     11154     11157     11158
     11151     11154     11157     11159     11151     11154     11157     11160
     11152     11151     11154     11155     11152     11151     11154     11156
     11152     11151     11154     11157     11153     11151     11154     11155
     11153     11151     11154     11156     11153     11151     11154     11157
     11154     11157     11160     11161     11154     11157     11160     11162
     11154     11157     11160     11163     11155     11154     11157     11158
     11155     11154     11157     11159     11155     11154     11157     11160
     11156     11154     11157     11158     11156     11154     11157     11159
     11156     11154     11157     11160     11157     11160     11163     11164
     11157     11160     11163     11165     11157     11160     11163     11166
     11158     11157     11160     11161     11158     11157     11160     11162
     11158     11157     11160     11163     11159     11157     11160     11161
     11159     11157     11160     11162     11159     11157     11160     11163
     11160     11163     11166     11167     11160     11163     11166     11168
     11160     11163     11166     11171     11161     11160     11163     11164
     11161     11160     11163     11165     11161     11160     11163     11166
     11162     11160     11163     11164     11162     11160     11163     11165
     11162     11160     11163     11166     11163     11166     11168     11169
     11163     11166     11168     11170     11163     11166     11168     11171
     11163     11166     11171     11168     11163     11166     11171     11172
     11163     11166     11171     11173     11164     11163     11166     11167
     11164     11163     11166     11168     11164     11163     11166     11171
     11165     11163     11166     11167     11165     11163     11166     11168
     11165     11163     11166     11171     11166     11168     11171     11172
     11166     11168     11171     11173     11166     11171     11168     11169
     11166     11171     11168     11170     11166     11171     11173     11174
     11166     11171     11173     11175     11166     11171     11173     11176
     11167     11166     11168     11169     11167     11166     11168     11170
     11167     11166     11168     11171     11167     11166     11171     11168
     11167     11166     11171     11172     11167     11166     11171     11173
     11168     11166     11171     11172     11168     11166     11171     11173
     11168     11171     11173     11174     11168     11171     11173     11175
     11168     11171     11173     11176     11169     11168     11166     11171
     11169     11168     11171     11172     11169     11168     11171     11173
     11170     11168     11166     11171     11170     11168     11171     11172
     11170     11168     11171     11173     11171     11173     11176     11177
     11171     11173     11176     11178     11171     11173     11176     11179
     11172     11171     11173     11174     11172     11171     11173     11175
     11172     11171     11173     11176     11173     11176     11179     11180
     11173     11176     11179     11181     11173     11176     11179     11182
     11174     11173     11176     11177     11174     11173     11176     11178
     11174     11173     11176     11179     11175     11173     11176     11177
     11175     11173     11176     11178     11175     11173     11176     11179
     11176     11179     11182     11183     11176     11179     11182     11184
     11176     11179     11182     11185     11177     11176     11179     11180
     11177     11176     11179     11181     11177     11176     11179     11182
     11178     11176     11179     11180     11178     11176     11179     11181
     11178     11176     11179     11182     11179     11182     11185     11186
     11179     11182     11185     11187     11179     11182     11185     11188
     11180     11179     11182     11183     11180     11179     11182     11184
     11180     11179     11182     11185     11181     11179     11182     11183
     11181     11179     11182     11184     11181     11179     11182     11185
     11182     11185     11188     11189     11182     11185     11188     11190
     11182     11185     11188     11191     11183     11182     11185     11186
     11183     11182     11185     11187     11183     11182     11185     11188
     11184     11182     11185     11186     11184     11182     11185     11187
     11184     11182     11185     11188     11186     11185     11188     11189
     11186     11185     11188     11190     11186     11185     11188     11191
     11187     11185     11188     11189     11187     11185     11188     11190
     11187     11185     11188     11191     11192     11195     11198     11199
     11192     11195     11198     11200     11192     11195     11198     11201
     11193     11192     11195     11196     11193     11192     11195     11197
     11193     11192     11195     11198     11194     11192     11195     11196
     11194     11192     11195     11197     11194     11192     11195     11198
     11195     11198     11201     11202     11195     11198     11201     11203
     11195     11198     11201     11204     11196     11195     11198     11199
     11196     11195     11198     11200     11196     11195     11198     11201
     11197     11195     11198     11199     11197     11195     11198     11200
     11197     11195     11198     11201     11198     11201     11204     11205
     11198     11201     11204     11206     11198     11201     11204     11207
     11199     11198     11201     11202     11199     11198     11201     11203
     11199     11198     11201     11204     11200     11198     11201     11202
     11200     11198     11201     11203     11200     11198     11201     11204
     11201     11204     11207     11208     11201     11204     11207     11209
     11201     11204     11207     11210     11202     11201     11204     11205
     11202     11201     11204     11206     11202     11201     11204     11207
     11203     11201     11204     11205     11203     11201     11204     11206
     11203     11201     11204     11207     11204     11207     11210     11211
     11204     11207     11210     11212     11204     11207     11210     11213
     11205     11204     11207     11208     11205     11204     11207     11209
     11205     11204     11207     11210     11206     11204     11207     11208
     11206     11204     11207     11209     11206     11204     11207     11210
     11207     11210     11213     11214     11207     11210     11213     11215
     11207     11210     11213     11216     11208     11207     11210     11211
     11208     11207     11210     11212     11208     11207     11210     11213
     11209     11207     11210     11211     11209     11207     11210     11212
     11209     11207     11210     11213     11210     11213     11216     11217
     11210     11213     11216     11218     11210     11213     11216     11219
     11211     11210     11213     11214     11211     11210     11213     11215
     11211     11210     11213     11216     11212     11210     11213     11214
     11212     11210     11213     11215     11212     11210     11213     11216
     11213     11216     11219     11220     11213     11216     11219     11221
     11213     11216     11219     11222     11214     11213     11216     11217
     11214     11213     11216     11218     11214     11213     11216     11219
     11215     11213     11216     11217     11215     11213     11216     11218
     11215     11213     11216     11219     11216     11219     11222     11223
     11216     11219     11222     11224     11216     11219     11222     11225
     11217     11216     11219     11220     11217     11216     11219     11221
     11217     11216     11219     11222     11218     11216     11219     11220
     11218     11216     11219     11221     11218     11216     11219     11222
     11219     11222     11225     11226     11219     11222     11225     11227
     11219     11222     11225     11228     11220     11219     11222     11223
     11220     11219     11222     11224     11220     11219     11222     11225
     11221     11219     11222     11223     11221     11219     11222     11224
     11221     11219     11222     11225     11222     11225     11228     11229
     11222     11225     11228     11230     11222     11225     11228     11231
     11223     11222     11225     11226     11223     11222     11225     11227
     11223     11222     11225     11228     11224     11222     11225     11226
     11224     11222     11225     11227     11224     11222     11225     11228
     11225     11228     11231     11232     11225     11228     11231     11233
     11225     11228     11231     11234     11226     11225     11228     11229
     11226     11225     11228     11230     11226     11225     11228     11231
     11227     11225     11228     11229     11227     11225     11228     11230
     11227     11225     11228     11231     11229     11228     11231     11232
     11229     11228     11231     11233     11229     11228     11231     11234
     11230     11228     11231     11232     11230     11228     11231     11233
     11230     11228     11231     11234     11235     11239     11242     11243
     11235     11239     11242     11244     11235     11239     11242     11249
     11236     11235     11239     11240     11236     11235     11239     11241
     11236     11235     11239     11242     11237     11235     11239     11240
     11237     11235     11239     11241     11237     11235     11239     11242
     11238     11235     11239     11240     11238     11235     11239     11241
     11238     11235     11239     11242     11239     11242     11249     11245
     11240     11239     11242     11243     11240     11239     11242     11244
     11240     11239     11242     11249     11241     11239     11242     11243
     11241     11239     11242     11244     11241     11239     11242     11249
     11242     11249     11245     11246     11242     11249     11245     11247
     11242     11249     11245     11248     11243     11242     11249     11245
     11244     11242     11249     11245     11245     11248     11250     11251
     11245     11248     11250     11252     11245     11248     11250     11253
     11246     11245     11248     11250     11247     11245     11248     11250
     11248     11250     11253     11254     11248     11250     11253     11255
     11248     11250     11253     11261     11249     11245     11248     11250
     11250     11253     11255     11256     11250     11253     11261     11262
     11250     11253     11261     11263     11250     11253     11261     11264
     11251     11250     11253     11254     11251     11250     11253     11255
     11251     11250     11253     11261     11252     11250     11253     11254
     11252     11250     11253     11255     11252     11250     11253     11261
     11253     11255     11256     11257     11253     11255     11256     11258
     11253     11261     11264     11265     11254     11253     11255     11256
     11254     11253     11261     11262     11254     11253     11261     11263
     11254     11253     11261     11264     11255     11253     11261     11262
     11255     11253     11261     11263     11255     11253     11261     11264
     11255     11256     11258     11259     11255     11256     11258     11260
     11255     11256     11258     11270     11256     11255     11253     11261
     11256     11258     11270     11271     11256     11258     11270     11272
     11256     11258     11270     11273     11257     11256     11258     11259
     11257     11256     11258     11260     11257     11256     11258     11270
     11258     11270     11273     11274     11258     11270     11273     11275
     11258     11270     11273     11276     11259     11258     11270     11271
     11259     11258     11270     11272     11259     11258     11270     11273
     11260     11258     11270     11271     11260     11258     11270     11272
     11260     11258     11270     11273     11261     11264     11265     11266
     11261     11264     11265     11267     11262     11261     11264     11265
     11263     11261     11264     11265     11264     11265     11267     11268
     11264     11265     11267     11269     11264     11265     11267     11314
     11265     11267     11314     11315     11265     11267     11314     11316
     11265     11267     11314     11317     11266     11265     11267     11268
     11266     11265     11267     11269     11266     11265     11267     11314
     11267     11314     11317     11318     11267     11314     11317     11319
     11267     11314     11317     11320     11268     11267     11314     11315
     11268     11267     11314     11316     11268     11267     11314     11317
     11269     11267     11314     11315     11269     11267     11314     11316
     11269     11267     11314     11317     11270     11273     11276     11277
     11270     11273     11276     11278     11270     11273     11276     11279
     11271     11270     11273     11274     11271     11270     11273     11275
     11271     11270     11273     11276     11272     11270     11273     11274
     11272     11270     11273     11275     11272     11270     11273     11276
     11273     11276     11279     11280     11273     11276     11279     11281
     11273     11276     11279     11282     11274     11273     11276     11277
     11274     11273     11276     11278     11274     11273     11276     11279
     11275     11273     11276     11277     11275     11273     11276     11278
     11275     11273     11276     11279     11276     11279     11282     11283
     11276     11279     11282     11284     11276     11279     11282     11285
     11277     11276     11279     11280     11277     11276     11279     11281
     11277     11276     11279     11282     11278     11276     11279     11280
     11278     11276     11279     11281     11278     11276     11279     11282
     11279     11282     11285     11286     11279     11282     11285     11287
     11279     11282     11285     11288     11280     11279     11282     11283
     11280     11279     11282     11284     11280     11279     11282     11285
     11281     11279     11282     11283     11281     11279     11282     11284
     11281     11279     11282     11285     11282     11285     11288     11289
     11282     11285     11288     11290     11282     11285     11288     11293
     11283     11282     11285     11286     11283     11282     11285     11287
     11283     11282     11285     11288     11284     11282     11285     11286
     11284     11282     11285     11287     11284     11282     11285     11288
     11285     11288     11290     11291     11285     11288     11290     11292
     11285     11288     11290     11293     11285     11288     11293     11290
     11285     11288     11293     11294     11285     11288     11293     11295
     11286     11285     11288     11289     11286     11285     11288     11290
     11286     11285     11288     11293     11287     11285     11288     11289
     11287     11285     11288     11290     11287     11285     11288     11293
     11288     11290     11293     11294     11288     11290     11293     11295
     11288     11293     11290     11291     11288     11293     11290     11292
     11288     11293     11295     11296     11288     11293     11295     11297
     11288     11293     11295     11298     11289     11288     11290     11291
     11289     11288     11290     11292     11289     11288     11290     11293
     11289     11288     11293     11290     11289     11288     11293     11294
     11289     11288     11293     11295     11290     11288     11293     11294
     11290     11288     11293     11295     11290     11293     11295     11296
     11290     11293     11295     11297     11290     11293     11295     11298
     11291     11290     11288     11293     11291     11290     11293     11294
     11291     11290     11293     11295     11292     11290     11288     11293
     11292     11290     11293     11294     11292     11290     11293     11295
     11293     11295     11298     11299     11293     11295     11298     11300
     11293     11295     11298     11301     11294     11293     11295     11296
     11294     11293     11295     11297     11294     11293     11295     11298
     11295     11298     11301     11302     11295     11298     11301     11303
     11295     11298     11301     11304     11296     11295     11298     11299
     11296     11295     11298     11300     11296     11295     11298     11301
     11297     11295     11298     11299     11297     11295     11298     11300
     11297     11295     11298     11301     11298     11301     11304     11305
     11298     11301     11304     11306     11298     11301     11304     11307
     11299     11298     11301     11302     11299     11298     11301     11303
     11299     11298     11301     11304     11300     11298     11301     11302
     11300     11298     11301     11303     11300     11298     11301     11304
     11301     11304     11307     11308     11301     11304     11307     11309
     11301     11304     11307     11310     11302     11301     11304     11305
     11302     11301     11304     11306     11302     11301     11304     11307
     11303     11301     11304     11305     11303     11301     11304     11306
     11303     11301     11304     11307     11304     11307     11310     11311
     11304     11307     11310     11312     11304     11307     11310     11313
     11305     11304     11307     11308     11305     11304     11307     11309
     11305     11304     11307     11310     11306     11304     11307     11308
     11306     11304     11307     11309     11306     11304     11307     11310
     11308     11307     11310     11311     11308     11307     11310     11312
     11308     11307     11310     11313     11309     11307     11310     11311
     11309     11307     11310     11312     11309     11307     11310     11313
     11314     11317     11320     11321     11314     11317     11320     11322
     11314     11317     11320     11323     11315     11314     11317     11318
     11315     11314     11317     11319     11315     11314     11317     11320
     11316     11314     11317     11318     11316     11314     11317     11319
     11316     11314     11317     11320     11317     11320     11323     11324
     11317     11320     11323     11325     11317     11320     11323     11326
     11318     11317     11320     11321     11318     11317     11320     11322
     11318     11317     11320     11323     11319     11317     11320     11321
     11319     11317     11320     11322     11319     11317     11320     11323
     11320     11323     11326     11327     11320     11323     11326     11328
     11320     11323     11326     11329     11321     11320     11323     11324
     11321     11320     11323     11325     11321     11320     11323     11326
     11322     11320     11323     11324     11322     11320     11323     11325
     11322     11320     11323     11326     11323     11326     11329     11330
     11323     11326     11329     11331     11323     11326     11329     11332
     11324     11323     11326     11327     11324     11323     11326     11328
     11324     11323     11326     11329     11325     11323     11326     11327
     11325     11323     11326     11328     11325     11323     11326     11329
     11326     11329     11332     11333     11326     11329     11332     11334
     11326     11329     11332     11335     11327     11326     11329     11330
     11327     11326     11329     11331     11327     11326     11329     11332
     11328     11326     11329     11330     11328     11326     11329     11331
     11328     11326     11329     11332     11329     11332     11335     11336
     11329     11332     11335     11337     11329     11332     11335     11338
     11330     11329     11332     11333     11330     11329     11332     11334
     11330     11329     11332     11335     11331     11329     11332     11333
     11331     11329     11332     11334     11331     11329     11332     11335
     11332     11335     11338     11339     11332     11335     11338     11340
     11332     11335     11338     11341     11333     11332     11335     11336
     11333     11332     11335     11337     11333     11332     11335     11338
     11334     11332     11335     11336     11334     11332     11335     11337
     11334     11332     11335     11338     11335     11338     11341     11342
     11335     11338     11341     11343     11335     11338     11341     11344
     11336     11335     11338     11339     11336     11335     11338     11340
     11336     11335     11338     11341     11337     11335     11338     11339
     11337     11335     11338     11340     11337     11335     11338     11341
     11338     11341     11344     11345     11338     11341     11344     11346
     11338     11341     11344     11347     11339     11338     11341     11342
     11339     11338     11341     11343     11339     11338     11341     11344
     11340     11338     11341     11342     11340     11338     11341     11343
     11340     11338     11341     11344     11341     11344     11347     11348
     11341     11344     11347     11349     11341     11344     11347     11350
     11342     11341     11344     11345     11342     11341     11344     11346
     11342     11341     11344     11347     11343     11341     11344     11345
     11343     11341     11344     11346     11343     11341     11344     11347
     11344     11347     11350     11351     11344     11347     11350     11352
     11344     11347     11350     11353     11345     11344     11347     11348
     11345     11344     11347     11349     11345     11344     11347     11350
     11346     11344     11347     11348     11346     11344     11347     11349
     11346     11344     11347     11350     11348     11347     11350     11351
     11348     11347     11350     11352     11348     11347     11350     11353
     11349     11347     11350     11351     11349     11347     11350     11352
     11349     11347     11350     11353     11354     11359     11361     11362
     11354     11359     11363     11364     11354     11359     11363     11365
     11354     11359     11363     11370     11355     11354     11357     11358
     11355     11354     11359     11360     11355     11354     11359     11361
     11355     11354     11359     11363     11356     11354     11357     11358
     11356     11354     11359     11360     11356     11354     11359     11361
     11356     11354     11359     11363     11357     11354     11359     11360
     11357     11354     11359     11361     11357     11354     11359     11363
     11358     11357     11354     11359     11359     11363     11370     11366
     11360     11359     11361     11362     11360     11359     11363     11364
     11360     11359     11363     11365     11360     11359     11363     11370
     11361     11359     11363     11364     11361     11359     11363     11365
     11361     11359     11363     11370     11362     11361     11359     11363
     11363     11370     11366     11367     11363     11370     11366     11368
     11363     11370     11366     11369     11364     11363     11370     11366
     11365     11363     11370     11366     11366     11369     11371     11372
     11366     11369     11371     11373     11366     11369     11371     11374
     11367     11366     11369     11371     11368     11366     11369     11371
     11369     11371     11374     11375     11369     11371     11374     11376
     11369     11371     11374     11382     11370     11366     11369     11371
     11371     11374     11376     11377     11371     11374     11382     11383
     11371     11374     11382     11384     11371     11374     11382     11385
     11372     11371     11374     11375     11372     11371     11374     11376
     11372     11371     11374     11382     11373     11371     11374     11375
     11373     11371     11374     11376     11373     11371     11374     11382
     11374     11376     11377     11378     11374     11376     11377     11379
     11374     11382     11385     11386     11375     11374     11376     11377
     11375     11374     11382     11383     11375     11374     11382     11384
     11375     11374     11382     11385     11376     11374     11382     11383
     11376     11374     11382     11384     11376     11374     11382     11385
     11376     11377     11379     11380     11376     11377     11379     11381
     11376     11377     11379     11391     11377     11376     11374     11382
     11377     11379     11391     11392     11377     11379     11391     11393
     11377     11379     11391     11394     11378     11377     11379     11380
     11378     11377     11379     11381     11378     11377     11379     11391
     11379     11391     11394     11395     11379     11391     11394     11396
     11379     11391     11394     11397     11380     11379     11391     11392
     11380     11379     11391     11393     11380     11379     11391     11394
     11381     11379     11391     11392     11381     11379     11391     11393
     11381     11379     11391     11394     11382     11385     11386     11387
     11382     11385     11386     11388     11383     11382     11385     11386
     11384     11382     11385     11386     11385     11386     11388     11389
     11385     11386     11388     11390     11385     11386     11388     11435
     11386     11388     11435     11436     11386     11388     11435     11437
     11386     11388     11435     11438     11387     11386     11388     11389
     11387     11386     11388     11390     11387     11386     11388     11435
     11388     11435     11438     11439     11388     11435     11438     11440
     11388     11435     11438     11441     11389     11388     11435     11436
     11389     11388     11435     11437     11389     11388     11435     11438
     11390     11388     11435     11436     11390     11388     11435     11437
     11390     11388     11435     11438     11391     11394     11397     11398
     11391     11394     11397     11399     11391     11394     11397     11400
     11392     11391     11394     11395     11392     11391     11394     11396
     11392     11391     11394     11397     11393     11391     11394     11395
     11393     11391     11394     11396     11393     11391     11394     11397
     11394     11397     11400     11401     11394     11397     11400     11402
     11394     11397     11400     11403     11395     11394     11397     11398
     11395     11394     11397     11399     11395     11394     11397     11400
     11396     11394     11397     11398     11396     11394     11397     11399
     11396     11394     11397     11400     11397     11400     11403     11404
     11397     11400     11403     11405     11397     11400     11403     11406
     11398     11397     11400     11401     11398     11397     11400     11402
     11398     11397     11400     11403     11399     11397     11400     11401
     11399     11397     11400     11402     11399     11397     11400     11403
     11400     11403     11406     11407     11400     11403     11406     11408
     11400     11403     11406     11409     11401     11400     11403     11404
     11401     11400     11403     11405     11401     11400     11403     11406
     11402     11400     11403     11404     11402     11400     11403     11405
     11402     11400     11403     11406     11403     11406     11409     11410
     11403     11406     11409     11411     11403     11406     11409     11414
     11404     11403     11406     11407     11404     11403     11406     11408
     11404     11403     11406     11409     11405     11403     11406     11407
     11405     11403     11406     11408     11405     11403     11406     11409
     11406     11409     11411     11412     11406     11409     11411     11413
     11406     11409     11411     11414     11406     11409     11414     11411
     11406     11409     11414     11415     11406     11409     11414     11416
     11407     11406     11409     11410     11407     11406     11409     11411
     11407     11406     11409     11414     11408     11406     11409     11410
     11408     11406     11409     11411     11408     11406     11409     11414
     11409     11411     11414     11415     11409     11411     11414     11416
     11409     11414     11411     11412     11409     11414     11411     11413
     11409     11414     11416     11417     11409     11414     11416     11418
     11409     11414     11416     11419     11410     11409     11411     11412
     11410     11409     11411     11413     11410     11409     11411     11414
     11410     11409     11414     11411     11410     11409     11414     11415
     11410     11409     11414     11416     11411     11409     11414     11415
     11411     11409     11414     11416     11411     11414     11416     11417
     11411     11414     11416     11418     11411     11414     11416     11419
     11412     11411     11409     11414     11412     11411     11414     11415
     11412     11411     11414     11416     11413     11411     11409     11414
     11413     11411     11414     11415     11413     11411     11414     11416
     11414     11416     11419     11420     11414     11416     11419     11421
     11414     11416     11419     11422     11415     11414     11416     11417
     11415     11414     11416     11418     11415     11414     11416     11419
     11416     11419     11422     11423     11416     11419     11422     11424
     11416     11419     11422     11425     11417     11416     11419     11420
     11417     11416     11419     11421     11417     11416     11419     11422
     11418     11416     11419     11420     11418     11416     11419     11421
     11418     11416     11419     11422     11419     11422     11425     11426
     11419     11422     11425     11427     11419     11422     11425     11428
     11420     11419     11422     11423     11420     11419     11422     11424
     11420     11419     11422     11425     11421     11419     11422     11423
     11421     11419     11422     11424     11421     11419     11422     11425
     11422     11425     11428     11429     11422     11425     11428     11430
     11422     11425     11428     11431     11423     11422     11425     11426
     11423     11422     11425     11427     11423     11422     11425     11428
     11424     11422     11425     11426     11424     11422     11425     11427
     11424     11422     11425     11428     11425     11428     11431     11432
     11425     11428     11431     11433     11425     11428     11431     11434
     11426     11425     11428     11429     11426     11425     11428     11430
     11426     11425     11428     11431     11427     11425     11428     11429
     11427     11425     11428     11430     11427     11425     11428     11431
     11429     11428     11431     11432     11429     11428     11431     11433
     11429     11428     11431     11434     11430     11428     11431     11432
     11430     11428     11431     11433     11430     11428     11431     11434
     11435     11438     11441     11442     11435     11438     11441     11443
     11435     11438     11441     11444     11436     11435     11438     11439
     11436     11435     11438     11440     11436     11435     11438     11441
     11437     11435     11438     11439     11437     11435     11438     11440
     11437     11435     11438     11441     11438     11441     11444     11445
     11438     11441     11444     11446     11438     11441     11444     11447
     11439     11438     11441     11442     11439     11438     11441     11443
     11439     11438     11441     11444     11440     11438     11441     11442
     11440     11438     11441     11443     11440     11438     11441     11444
     11441     11444     11447     11448     11441     11444     11447     11449
     11441     11444     11447     11450     11442     11441     11444     11445
     11442     11441     11444     11446     11442     11441     11444     11447
     11443     11441     11444     11445     11443     11441     11444     11446
     11443     11441     11444     11447     11444     11447     11450     11451
     11444     11447     11450     11452     11444     11447     11450     11453
     11445     11444     11447     11448     11445     11444     11447     11449
     11445     11444     11447     11450     11446     11444     11447     11448
     11446     11444     11447     11449     11446     11444     11447     11450
     11447     11450     11453     11454     11447     11450     11453     11455
     11447     11450     11453     11456     11448     11447     11450     11451
     11448     11447     11450     11452     11448     11447     11450     11453
     11449     11447     11450     11451     11449     11447     11450     11452
     11449     11447     11450     11453     11450     11453     11456     11457
     11450     11453     11456     11458     11450     11453     11456     11459
     11451     11450     11453     11454     11451     11450     11453     11455
     11451     11450     11453     11456     11452     11450     11453     11454
     11452     11450     11453     11455     11452     11450     11453     11456
     11453     11456     11459     11460     11453     11456     11459     11461
     11453     11456     11459     11462     11454     11453     11456     11457
     11454     11453     11456     11458     11454     11453     11456     11459
     11455     11453     11456     11457     11455     11453     11456     11458
     11455     11453     11456     11459     11456     11459     11462     11463
     11456     11459     11462     11464     11456     11459     11462     11465
     11457     11456     11459     11460     11457     11456     11459     11461
     11457     11456     11459     11462     11458     11456     11459     11460
     11458     11456     11459     11461     11458     11456     11459     11462
     11459     11462     11465     11466     11459     11462     11465     11467
     11459     11462     11465     11468     11460     11459     11462     11463
     11460     11459     11462     11464     11460     11459     11462     11465
     11461     11459     11462     11463     11461     11459     11462     11464
     11461     11459     11462     11465     11462     11465     11468     11469
     11462     11465     11468     11470     11462     11465     11468     11471
     11463     11462     11465     11466     11463     11462     11465     11467
     11463     11462     11465     11468     11464     11462     11465     11466
     11464     11462     11465     11467     11464     11462     11465     11468
     11465     11468     11471     11472     11465     11468     11471     11473
     11465     11468     11471     11474     11466     11465     11468     11469
     11466     11465     11468     11470     11466     11465     11468     11471
     11467     11465     11468     11469     11467     11465     11468     11470
     11467     11465     11468     11471     11468     11471     11474     11475
     11468     11471     11474     11476     11468     11471     11474     11477
     11469     11468     11471     11472     11469     11468     11471     11473
     11469     11468     11471     11474     11470     11468     11471     11472
     11470     11468     11471     11473     11470     11468     11471     11474
     11472     11471     11474     11475     11472     11471     11474     11476
     11472     11471     11474     11477     11473     11471     11474     11475
     11473     11471     11474     11476     11473     11471     11474     11477
     11478     11482     11485     11486     11478     11482     11485     11487
     11478     11482     11485     11492     11479     11478     11482     11483
     11479     11478     11482     11484     11479     11478     11482     11485
     11480     11478     11482     11483     11480     11478     11482     11484
     11480     11478     11482     11485     11481     11478     11482     11483
     11481     11478     11482     11484     11481     11478     11482     11485
     11482     11485     11492     11488     11483     11482     11485     11486
     11483     11482     11485     11487     11483     11482     11485     11492
     11484     11482     11485     11486     11484     11482     11485     11487
     11484     11482     11485     11492     11485     11492     11488     11489
     11485     11492     11488     11490     11485     11492     11488     11491
     11486     11485     11492     11488     11487     11485     11492     11488
     11488     11491     11493     11494     11488     11491     11493     11495
     11488     11491     11493     11496     11489     11488     11491     11493
     11490     11488     11491     11493     11491     11493     11496     11497
     11491     11493     11496     11498     11491     11493     11496     11504
     11492     11488     11491     11493     11493     11496     11498     11499
     11493     11496     11504     11505     11493     11496     11504     11506
     11493     11496     11504     11507     11494     11493     11496     11497
     11494     11493     11496     11498     11494     11493     11496     11504
     11495     11493     11496     11497     11495     11493     11496     11498
     11495     11493     11496     11504     11496     11498     11499     11500
     11496     11498     11499     11501     11496     11504     11507     11508
     11497     11496     11498     11499     11497     11496     11504     11505
     11497     11496     11504     11506     11497     11496     11504     11507
     11498     11496     11504     11505     11498     11496     11504     11506
     11498     11496     11504     11507     11498     11499     11501     11502
     11498     11499     11501     11503     11498     11499     11501     11513
     11499     11498     11496     11504     11499     11501     11513     11514
     11499     11501     11513     11515     11499     11501     11513     11516
     11500     11499     11501     11502     11500     11499     11501     11503
     11500     11499     11501     11513     11501     11513     11516     11517
     11501     11513     11516     11518     11501     11513     11516     11519
     11502     11501     11513     11514     11502     11501     11513     11515
     11502     11501     11513     11516     11503     11501     11513     11514
     11503     11501     11513     11515     11503     11501     11513     11516
     11504     11507     11508     11509     11504     11507     11508     11510
     11505     11504     11507     11508     11506     11504     11507     11508
     11507     11508     11510     11511     11507     11508     11510     11512
     11507     11508     11510     11557     11508     11510     11557     11558
     11508     11510     11557     11559     11508     11510     11557     11560
     11509     11508     11510     11511     11509     11508     11510     11512
     11509     11508     11510     11557     11510     11557     11560     11561
     11510     11557     11560     11562     11510     11557     11560     11563
     11511     11510     11557     11558     11511     11510     11557     11559
     11511     11510     11557     11560     11512     11510     11557     11558
     11512     11510     11557     11559     11512     11510     11557     11560
     11513     11516     11519     11520     11513     11516     11519     11521
     11513     11516     11519     11522     11514     11513     11516     11517
     11514     11513     11516     11518     11514     11513     11516     11519
     11515     11513     11516     11517     11515     11513     11516     11518
     11515     11513     11516     11519     11516     11519     11522     11523
     11516     11519     11522     11524     11516     11519     11522     11525
     11517     11516     11519     11520     11517     11516     11519     11521
     11517     11516     11519     11522     11518     11516     11519     11520
     11518     11516     11519     11521     11518     11516     11519     11522
     11519     11522     11525     11526     11519     11522     11525     11527
     11519     11522     11525     11528     11520     11519     11522     11523
     11520     11519     11522     11524     11520     11519     11522     11525
     11521     11519     11522     11523     11521     11519     11522     11524
     11521     11519     11522     11525     11522     11525     11528     11529
     11522     11525     11528     11530     11522     11525     11528     11531
     11523     11522     11525     11526     11523     11522     11525     11527
     11523     11522     11525     11528     11524     11522     11525     11526
     11524     11522     11525     11527     11524     11522     11525     11528
     11525     11528     11531     11532     11525     11528     11531     11533
     11525     11528     11531     11536     11526     11525     11528     11529
     11526     11525     11528     11530     11526     11525     11528     11531
     11527     11525     11528     11529     11527     11525     11528     11530
     11527     11525     11528     11531     11528     11531     11533     11534
     11528     11531     11533     11535     11528     11531     11533     11536
     11528     11531     11536     11533     11528     11531     11536     11537
     11528     11531     11536     11538     11529     11528     11531     11532
     11529     11528     11531     11533     11529     11528     11531     11536
     11530     11528     11531     11532     11530     11528     11531     11533
     11530     11528     11531     11536     11531     11533     11536     11537
     11531     11533     11536     11538     11531     11536     11533     11534
     11531     11536     11533     11535     11531     11536     11538     11539
     11531     11536     11538     11540     11531     11536     11538     11541
     11532     11531     11533     11534     11532     11531     11533     11535
     11532     11531     11533     11536     11532     11531     11536     11533
     11532     11531     11536     11537     11532     11531     11536     11538
     11533     11531     11536     11537     11533     11531     11536     11538
     11533     11536     11538     11539     11533     11536     11538     11540
     11533     11536     11538     11541     11534     11533     11531     11536
     11534     11533     11536     11537     11534     11533     11536     11538
     11535     11533     11531     11536     11535     11533     11536     11537
     11535     11533     11536     11538     11536     11538     11541     11542
     11536     11538     11541     11543     11536     11538     11541     11544
     11537     11536     11538     11539     11537     11536     11538     11540
     11537     11536     11538     11541     11538     11541     11544     11545
     11538     11541     11544     11546     11538     11541     11544     11547
     11539     11538     11541     11542     11539     11538     11541     11543
     11539     11538     11541     11544     11540     11538     11541     11542
     11540     11538     11541     11543     11540     11538     11541     11544
     11541     11544     11547     11548     11541     11544     11547     11549
     11541     11544     11547     11550     11542     11541     11544     11545
     11542     11541     11544     11546     11542     11541     11544     11547
     11543     11541     11544     11545     11543     11541     11544     11546
     11543     11541     11544     11547     11544     11547     11550     11551
     11544     11547     11550     11552     11544     11547     11550     11553
     11545     11544     11547     11548     11545     11544     11547     11549
     11545     11544     11547     11550     11546     11544     11547     11548
     11546     11544     11547     11549     11546     11544     11547     11550
     11547     11550     11553     11554     11547     11550     11553     11555
     11547     11550     11553     11556     11548     11547     11550     11551
     11548     11547     11550     11552     11548     11547     11550     11553
     11549     11547     11550     11551     11549     11547     11550     11552
     11549     11547     11550     11553     11551     11550     11553     11554
     11551     11550     11553     11555     11551     11550     11553     11556
     11552     11550     11553     11554     11552     11550     11553     11555
     11552     11550     11553     11556     11557     11560     11563     11564
     11557     11560     11563     11565     11557     11560     11563     11566
     11558     11557     11560     11561     11558     11557     11560     11562
     11558     11557     11560     11563     11559     11557     11560     11561
     11559     11557     11560     11562     11559     11557     11560     11563
     11560     11563     11566     11567     11560     11563     11566     11568
     11560     11563     11566     11569     11561     11560     11563     11564
     11561     11560     11563     11565     11561     11560     11563     11566
     11562     11560     11563     11564     11562     11560     11563     11565
     11562     11560     11563     11566     11563     11566     11569     11570
     11563     11566     11569     11571     11563     11566     11569     11572
     11564     11563     11566     11567     11564     11563     11566     11568
     11564     11563     11566     11569     11565     11563     11566     11567
     11565     11563     11566     11568     11565     11563     11566     11569
     11566     11569     11572     11573     11566     11569     11572     11574
     11566     11569     11572     11575     11567     11566     11569     11570
     11567     11566     11569     11571     11567     11566     11569     11572
     11568     11566     11569     11570     11568     11566     11569     11571
     11568     11566     11569     11572     11569     11572     11575     11576
     11569     11572     11575     11577     11569     11572     11575     11578
     11570     11569     11572     11573     11570     11569     11572     11574
     11570     11569     11572     11575     11571     11569     11572     11573
     11571     11569     11572     11574     11571     11569     11572     11575
     11572     11575     11578     11579     11572     11575     11578     11580
     11572     11575     11578     11581     11573     11572     11575     11576
     11573     11572     11575     11577     11573     11572     11575     11578
     11574     11572     11575     11576     11574     11572     11575     11577
     11574     11572     11575     11578     11575     11578     11581     11582
     11575     11578     11581     11583     11575     11578     11581     11584
     11576     11575     11578     11579     11576     11575     11578     11580
     11576     11575     11578     11581     11577     11575     11578     11579
     11577     11575     11578     11580     11577     11575     11578     11581
     11578     11581     11584     11585     11578     11581     11584     11586
     11578     11581     11584     11587     11579     11578     11581     11582
     11579     11578     11581     11583     11579     11578     11581     11584
     11580     11578     11581     11582     11580     11578     11581     11583
     11580     11578     11581     11584     11581     11584     11587     11588
     11581     11584     11587     11589     11581     11584     11587     11590
     11582     11581     11584     11585     11582     11581     11584     11586
     11582     11581     11584     11587     11583     11581     11584     11585
     11583     11581     11584     11586     11583     11581     11584     11587
     11584     11587     11590     11591     11584     11587     11590     11592
     11584     11587     11590     11593     11585     11584     11587     11588
     11585     11584     11587     11589     11585     11584     11587     11590
     11586     11584     11587     11588     11586     11584     11587     11589
     11586     11584     11587     11590     11587     11590     11593     11594
     11587     11590     11593     11595     11587     11590     11593     11596
     11588     11587     11590     11591     11588     11587     11590     11592
     11588     11587     11590     11593     11589     11587     11590     11591
     11589     11587     11590     11592     11589     11587     11590     11593
     11590     11593     11596     11597     11590     11593     11596     11598
     11590     11593     11596     11599     11591     11590     11593     11594
     11591     11590     11593     11595     11591     11590     11593     11596
     11592     11590     11593     11594     11592     11590     11593     11595
     11592     11590     11593     11596     11594     11593     11596     11597
     11594     11593     11596     11598     11594     11593     11596     11599
     11595     11593     11596     11597     11595     11593     11596     11598
     11595     11593     11596     11599     11600     11604     11607     11608
     11600     11604     11607     11609     11600     11604     11607     11614
     11601     11600     11604     11605     11601     11600     11604     11606
     11601     11600     11604     11607     11602     11600     11604     11605
     11602     11600     11604     11606     11602     11600     11604     11607
     11603     11600     11604     11605     11603     11600     11604     11606
     11603     11600     11604     11607     11604     11607     11614     11610
     11605     11604     11607     11608     11605     11604     11607     11609
     11605     11604     11607     11614     11606     11604     11607     11608
     11606     11604     11607     11609     11606     11604     11607     11614
     11607     11614     11610     11611     11607     11614     11610     11612
     11607     11614     11610     11613     11608     11607     11614     11610
     11609     11607     11614     11610     11610     11613     11615     11616
     11610     11613     11615     11617     11610     11613     11615     11618
     11611     11610     11613     11615     11612     11610     11613     11615
     11613     11615     11618     11619     11613     11615     11618     11620
     11613     11615     11618     11626     11614     11610     11613     11615
     11615     11618     11620     11621     11615     11618     11626     11627
     11615     11618     11626     11628     11615     11618     11626     11629
     11616     11615     11618     11619     11616     11615     11618     11620
     11616     11615     11618     11626     11617     11615     11618     11619
     11617     11615     11618     11620     11617     11615     11618     11626
     11618     11620     11621     11622     11618     11620     11621     11623
     11618     11626     11629     11630     11619     11618     11620     11621
     11619     11618     11626     11627     11619     11618     11626     11628
     11619     11618     11626     11629     11620     11618     11626     11627
     11620     11618     11626     11628     11620     11618     11626     11629
     11620     11621     11623     11624     11620     11621     11623     11625
     11620     11621     11623     11635     11621     11620     11618     11626
     11621     11623     11635     11636     11621     11623     11635     11637
     11621     11623     11635     11638     11622     11621     11623     11624
     11622     11621     11623     11625     11622     11621     11623     11635
     11623     11635     11638     11639     11623     11635     11638     11640
     11623     11635     11638     11641     11624     11623     11635     11636
     11624     11623     11635     11637     11624     11623     11635     11638
     11625     11623     11635     11636     11625     11623     11635     11637
     11625     11623     11635     11638     11626     11629     11630     11631
     11626     11629     11630     11632     11627     11626     11629     11630
     11628     11626     11629     11630     11629     11630     11632     11633
     11629     11630     11632     11634     11629     11630     11632     11679
     11630     11632     11679     11680     11630     11632     11679     11681
     11630     11632     11679     11682     11631     11630     11632     11633
     11631     11630     11632     11634     11631     11630     11632     11679
     11632     11679     11682     11683     11632     11679     11682     11684
     11632     11679     11682     11685     11633     11632     11679     11680
     11633     11632     11679     11681     11633     11632     11679     11682
     11634     11632     11679     11680     11634     11632     11679     11681
     11634     11632     11679     11682     11635     11638     11641     11642
     11635     11638     11641     11643     11635     11638     11641     11644
     11636     11635     11638     11639     11636     11635     11638     11640
     11636     11635     11638     11641     11637     11635     11638     11639
     11637     11635     11638     11640     11637     11635     11638     11641
     11638     11641     11644     11645     11638     11641     11644     11646
     11638     11641     11644     11647     11639     11638     11641     11642
     11639     11638     11641     11643     11639     11638     11641     11644
     11640     11638     11641     11642     11640     11638     11641     11643
     11640     11638     11641     11644     11641     11644     11647     11648
     11641     11644     11647     11649     11641     11644     11647     11650
     11642     11641     11644     11645     11642     11641     11644     11646
     11642     11641     11644     11647     11643     11641     11644     11645
     11643     11641     11644     11646     11643     11641     11644     11647
     11644     11647     11650     11651     11644     11647     11650     11652
     11644     11647     11650     11653     11645     11644     11647     11648
     11645     11644     11647     11649     11645     11644     11647     11650
     11646     11644     11647     11648     11646     11644     11647     11649
     11646     11644     11647     11650     11647     11650     11653     11654
     11647     11650     11653     11655     11647     11650     11653     11658
     11648     11647     11650     11651     11648     11647     11650     11652
     11648     11647     11650     11653     11649     11647     11650     11651
     11649     11647     11650     11652     11649     11647     11650     11653
     11650     11653     11655     11656     11650     11653     11655     11657
     11650     11653     11655     11658     11650     11653     11658     11655
     11650     11653     11658     11659     11650     11653     11658     11660
     11651     11650     11653     11654     11651     11650     11653     11655
     11651     11650     11653     11658     11652     11650     11653     11654
     11652     11650     11653     11655     11652     11650     11653     11658
     11653     11655     11658     11659     11653     11655     11658     11660
     11653     11658     11655     11656     11653     11658     11655     11657
     11653     11658     11660     11661     11653     11658     11660     11662
     11653     11658     11660     11663     11654     11653     11655     11656
     11654     11653     11655     11657     11654     11653     11655     11658
     11654     11653     11658     11655     11654     11653     11658     11659
     11654     11653     11658     11660     11655     11653     11658     11659
     11655     11653     11658     11660     11655     11658     11660     11661
     11655     11658     11660     11662     11655     11658     11660     11663
     11656     11655     11653     11658     11656     11655     11658     11659
     11656     11655     11658     11660     11657     11655     11653     11658
     11657     11655     11658     11659     11657     11655     11658     11660
     11658     11660     11663     11664     11658     11660     11663     11665
     11658     11660     11663     11666     11659     11658     11660     11661
     11659     11658     11660     11662     11659     11658     11660     11663
     11660     11663     11666     11667     11660     11663     11666     11668
     11660     11663     11666     11669     11661     11660     11663     11664
     11661     11660     11663     11665     11661     11660     11663     11666
     11662     11660     11663     11664     11662     11660     11663     11665
     11662     11660     11663     11666     11663     11666     11669     11670
     11663     11666     11669     11671     11663     11666     11669     11672
     11664     11663     11666     11667     11664     11663     11666     11668
     11664     11663     11666     11669     11665     11663     11666     11667
     11665     11663     11666     11668     11665     11663     11666     11669
     11666     11669     11672     11673     11666     11669     11672     11674
     11666     11669     11672     11675     11667     11666     11669     11670
     11667     11666     11669     11671     11667     11666     11669     11672
     11668     11666     11669     11670     11668     11666     11669     11671
     11668     11666     11669     11672     11669     11672     11675     11676
     11669     11672     11675     11677     11669     11672     11675     11678
     11670     11669     11672     11673     11670     11669     11672     11674
     11670     11669     11672     11675     11671     11669     11672     11673
     11671     11669     11672     11674     11671     11669     11672     11675
     11673     11672     11675     11676     11673     11672     11675     11677
     11673     11672     11675     11678     11674     11672     11675     11676
     11674     11672     11675     11677     11674     11672     11675     11678
     11679     11682     11685     11686     11679     11682     11685     11687
     11679     11682     11685     11688     11680     11679     11682     11683
     11680     11679     11682     11684     11680     11679     11682     11685
     11681     11679     11682     11683     11681     11679     11682     11684
     11681     11679     11682     11685     11682     11685     11688     11689
     11682     11685     11688     11690     11682     11685     11688     11691
     11683     11682     11685     11686     11683     11682     11685     11687
     11683     11682     11685     11688     11684     11682     11685     11686
     11684     11682     11685     11687     11684     11682     11685     11688
     11685     11688     11691     11692     11685     11688     11691     11693
     11685     11688     11691     11694     11686     11685     11688     11689
     11686     11685     11688     11690     11686     11685     11688     11691
     11687     11685     11688     11689     11687     11685     11688     11690
     11687     11685     11688     11691     11688     11691     11694     11695
     11688     11691     11694     11696     11688     11691     11694     11697
     11689     11688     11691     11692     11689     11688     11691     11693
     11689     11688     11691     11694     11690     11688     11691     11692
     11690     11688     11691     11693     11690     11688     11691     11694
     11691     11694     11697     11698     11691     11694     11697     11699
     11691     11694     11697     11700     11692     11691     11694     11695
     11692     11691     11694     11696     11692     11691     11694     11697
     11693     11691     11694     11695     11693     11691     11694     11696
     11693     11691     11694     11697     11694     11697     11700     11701
     11694     11697     11700     11702     11694     11697     11700     11703
     11695     11694     11697     11698     11695     11694     11697     11699
     11695     11694     11697     11700     11696     11694     11697     11698
     11696     11694     11697     11699     11696     11694     11697     11700
     11697     11700     11703     11704     11697     11700     11703     11705
     11697     11700     11703     11706     11698     11697     11700     11701
     11698     11697     11700     11702     11698     11697     11700     11703
     11699     11697     11700     11701     11699     11697     11700     11702
     11699     11697     11700     11703     11700     11703     11706     11707
     11700     11703     11706     11708     11700     11703     11706     11709
     11701     11700     11703     11704     11701     11700     11703     11705
     11701     11700     11703     11706     11702     11700     11703     11704
     11702     11700     11703     11705     11702     11700     11703     11706
     11703     11706     11709     11710     11703     11706     11709     11711
     11703     11706     11709     11712     11704     11703     11706     11707
     11704     11703     11706     11708     11704     11703     11706     11709
     11705     11703     11706     11707     11705     11703     11706     11708
     11705     11703     11706     11709     11706     11709     11712     11713
     11706     11709     11712     11714     11706     11709     11712     11715
     11707     11706     11709     11710     11707     11706     11709     11711
     11707     11706     11709     11712     11708     11706     11709     11710
     11708     11706     11709     11711     11708     11706     11709     11712
     11709     11712     11715     11716     11709     11712     11715     11717
     11709     11712     11715     11718     11710     11709     11712     11713
     11710     11709     11712     11714     11710     11709     11712     11715
     11711     11709     11712     11713     11711     11709     11712     11714
     11711     11709     11712     11715     11712     11715     11718     11719
     11712     11715     11718     11720     11712     11715     11718     11721
     11713     11712     11715     11716     11713     11712     11715     11717
     11713     11712     11715     11718     11714     11712     11715     11716
     11714     11712     11715     11717     11714     11712     11715     11718
     11716     11715     11718     11719     11716     11715     11718     11720
     11716     11715     11718     11721     11717     11715     11718     11719
     11717     11715     11718     11720     11717     11715     11718     11721
     11722     11726     11729     11730     11722     11726     11729     11731
     11722     11726     11729     11736     11723     11722     11726     11727
     11723     11722     11726     11728     11723     11722     11726     11729
     11724     11722     11726     11727     11724     11722     11726     11728
     11724     11722     11726     11729     11725     11722     11726     11727
     11725     11722     11726     11728     11725     11722     11726     11729
     11726     11729     11736     11732     11727     11726     11729     11730
     11727     11726     11729     11731     11727     11726     11729     11736
     11728     11726     11729     11730     11728     11726     11729     11731
     11728     11726     11729     11736     11729     11736     11732     11733
     11729     11736     11732     11734     11729     11736     11732     11735
     11730     11729     11736     11732     11731     11729     11736     11732
     11732     11735     11737     11738     11732     11735     11737     11739
     11732     11735     11737     11740     11733     11732     11735     11737
     11734     11732     11735     11737     11735     11737     11740     11741
     11735     11737     11740     11742     11735     11737     11740     11748
     11736     11732     11735     11737     11737     11740     11742     11743
     11737     11740     11748     11749     11737     11740     11748     11750
     11737     11740     11748     11751     11738     11737     11740     11741
     11738     11737     11740     11742     11738     11737     11740     11748
     11739     11737     11740     11741     11739     11737     11740     11742
     11739     11737     11740     11748     11740     11742     11743     11744
     11740     11742     11743     11745     11740     11748     11751     11752
     11741     11740     11742     11743     11741     11740     11748     11749
     11741     11740     11748     11750     11741     11740     11748     11751
     11742     11740     11748     11749     11742     11740     11748     11750
     11742     11740     11748     11751     11742     11743     11745     11746
     11742     11743     11745     11747     11742     11743     11745     11757
     11743     11742     11740     11748     11743     11745     11757     11758
     11743     11745     11757     11759     11743     11745     11757     11760
     11744     11743     11745     11746     11744     11743     11745     11747
     11744     11743     11745     11757     11745     11757     11760     11761
     11745     11757     11760     11762     11745     11757     11760     11763
     11746     11745     11757     11758     11746     11745     11757     11759
     11746     11745     11757     11760     11747     11745     11757     11758
     11747     11745     11757     11759     11747     11745     11757     11760
     11748     11751     11752     11753     11748     11751     11752     11754
     11749     11748     11751     11752     11750     11748     11751     11752
     11751     11752     11754     11755     11751     11752     11754     11756
     11751     11752     11754     11801     11752     11754     11801     11802
     11752     11754     11801     11803     11752     11754     11801     11804
     11753     11752     11754     11755     11753     11752     11754     11756
     11753     11752     11754     11801     11754     11801     11804     11805
     11754     11801     11804     11806     11754     11801     11804     11807
     11755     11754     11801     11802     11755     11754     11801     11803
     11755     11754     11801     11804     11756     11754     11801     11802
     11756     11754     11801     11803     11756     11754     11801     11804
     11757     11760     11763     11764     11757     11760     11763     11765
     11757     11760     11763     11766     11758     11757     11760     11761
     11758     11757     11760     11762     11758     11757     11760     11763
     11759     11757     11760     11761     11759     11757     11760     11762
     11759     11757     11760     11763     11760     11763     11766     11767
     11760     11763     11766     11768     11760     11763     11766     11769
     11761     11760     11763     11764     11761     11760     11763     11765
     11761     11760     11763     11766     11762     11760     11763     11764
     11762     11760     11763     11765     11762     11760     11763     11766
     11763     11766     11769     11770     11763     11766     11769     11771
     11763     11766     11769     11772     11764     11763     11766     11767
     11764     11763     11766     11768     11764     11763     11766     11769
     11765     11763     11766     11767     11765     11763     11766     11768
     11765     11763     11766     11769     11766     11769     11772     11773
     11766     11769     11772     11774     11766     11769     11772     11775
     11767     11766     11769     11770     11767     11766     11769     11771
     11767     11766     11769     11772     11768     11766     11769     11770
     11768     11766     11769     11771     11768     11766     11769     11772
     11769     11772     11775     11776     11769     11772     11775     11777
     11769     11772     11775     11780     11770     11769     11772     11773
     11770     11769     11772     11774     11770     11769     11772     11775
     11771     11769     11772     11773     11771     11769     11772     11774
     11771     11769     11772     11775     11772     11775     11777     11778
     11772     11775     11777     11779     11772     11775     11777     11780
     11772     11775     11780     11777     11772     11775     11780     11781
     11772     11775     11780     11782     11773     11772     11775     11776
     11773     11772     11775     11777     11773     11772     11775     11780
     11774     11772     11775     11776     11774     11772     11775     11777
     11774     11772     11775     11780     11775     11777     11780     11781
     11775     11777     11780     11782     11775     11780     11777     11778
     11775     11780     11777     11779     11775     11780     11782     11783
     11775     11780     11782     11784     11775     11780     11782     11785
     11776     11775     11777     11778     11776     11775     11777     11779
     11776     11775     11777     11780     11776     11775     11780     11777
     11776     11775     11780     11781     11776     11775     11780     11782
     11777     11775     11780     11781     11777     11775     11780     11782
     11777     11780     11782     11783     11777     11780     11782     11784
     11777     11780     11782     11785     11778     11777     11775     11780
     11778     11777     11780     11781     11778     11777     11780     11782
     11779     11777     11775     11780     11779     11777     11780     11781
     11779     11777     11780     11782     11780     11782     11785     11786
     11780     11782     11785     11787     11780     11782     11785     11788
     11781     11780     11782     11783     11781     11780     11782     11784
     11781     11780     11782     11785     11782     11785     11788     11789
     11782     11785     11788     11790     11782     11785     11788     11791
     11783     11782     11785     11786     11783     11782     11785     11787
     11783     11782     11785     11788     11784     11782     11785     11786
     11784     11782     11785     11787     11784     11782     11785     11788
     11785     11788     11791     11792     11785     11788     11791     11793
     11785     11788     11791     11794     11786     11785     11788     11789
     11786     11785     11788     11790     11786     11785     11788     11791
     11787     11785     11788     11789     11787     11785     11788     11790
     11787     11785     11788     11791     11788     11791     11794     11795
     11788     11791     11794     11796     11788     11791     11794     11797
     11789     11788     11791     11792     11789     11788     11791     11793
     11789     11788     11791     11794     11790     11788     11791     11792
     11790     11788     11791     11793     11790     11788     11791     11794
     11791     11794     11797     11798     11791     11794     11797     11799
     11791     11794     11797     11800     11792     11791     11794     11795
     11792     11791     11794     11796     11792     11791     11794     11797
     11793     11791     11794     11795     11793     11791     11794     11796
     11793     11791     11794     11797     11795     11794     11797     11798
     11795     11794     11797     11799     11795     11794     11797     11800
     11796     11794     11797     11798     11796     11794     11797     11799
     11796     11794     11797     11800     11801     11804     11807     11808
     11801     11804     11807     11809     11801     11804     11807     11810
     11802     11801     11804     11805     11802     11801     11804     11806
     11802     11801     11804     11807     11803     11801     11804     11805
     11803     11801     11804     11806     11803     11801     11804     11807
     11804     11807     11810     11811     11804     11807     11810     11812
     11804     11807     11810     11813     11805     11804     11807     11808
     11805     11804     11807     11809     11805     11804     11807     11810
     11806     11804     11807     11808     11806     11804     11807     11809
     11806     11804     11807     11810     11807     11810     11813     11814
     11807     11810     11813     11815     11807     11810     11813     11816
     11808     11807     11810     11811     11808     11807     11810     11812
     11808     11807     11810     11813     11809     11807     11810     11811
     11809     11807     11810     11812     11809     11807     11810     11813
     11810     11813     11816     11817     11810     11813     11816     11818
     11810     11813     11816     11819     11811     11810     11813     11814
     11811     11810     11813     11815     11811     11810     11813     11816
     11812     11810     11813     11814     11812     11810     11813     11815
     11812     11810     11813     11816     11813     11816     11819     11820
     11813     11816     11819     11821     11813     11816     11819     11822
     11814     11813     11816     11817     11814     11813     11816     11818
     11814     11813     11816     11819     11815     11813     11816     11817
     11815     11813     11816     11818     11815     11813     11816     11819
     11816     11819     11822     11823     11816     11819     11822     11824
     11816     11819     11822     11825     11817     11816     11819     11820
     11817     11816     11819     11821     11817     11816     11819     11822
     11818     11816     11819     11820     11818     11816     11819     11821
     11818     11816     11819     11822     11819     11822     11825     11826
     11819     11822     11825     11827     11819     11822     11825     11828
     11820     11819     11822     11823     11820     11819     11822     11824
     11820     11819     11822     11825     11821     11819     11822     11823
     11821     11819     11822     11824     11821     11819     11822     11825
     11822     11825     11828     11829     11822     11825     11828     11830
     11822     11825     11828     11831     11823     11822     11825     11826
     11823     11822     11825     11827     11823     11822     11825     11828
     11824     11822     11825     11826     11824     11822     11825     11827
     11824     11822     11825     11828     11825     11828     11831     11832
     11825     11828     11831     11833     11825     11828     11831     11834
     11826     11825     11828     11829     11826     11825     11828     11830
     11826     11825     11828     11831     11827     11825     11828     11829
     11827     11825     11828     11830     11827     11825     11828     11831
     11828     11831     11834     11835     11828     11831     11834     11836
     11828     11831     11834     11837     11829     11828     11831     11832
     11829     11828     11831     11833     11829     11828     11831     11834
     11830     11828     11831     11832     11830     11828     11831     11833
     11830     11828     11831     11834     11831     11834     11837     11838
     11831     11834     11837     11839     11831     11834     11837     11840
     11832     11831     11834     11835     11832     11831     11834     11836
     11832     11831     11834     11837     11833     11831     11834     11835
     11833     11831     11834     11836     11833     11831     11834     11837
     11834     11837     11840     11841     11834     11837     11840     11842
     11834     11837     11840     11843     11835     11834     11837     11838
     11835     11834     11837     11839     11835     11834     11837     11840
     11836     11834     11837     11838     11836     11834     11837     11839
     11836     11834     11837     11840     11838     11837     11840     11841
     11838     11837     11840     11842     11838     11837     11840     11843
     11839     11837     11840     11841     11839     11837     11840     11842
     11839     11837     11840     11843     11844     11848     11851     11852
     11844     11848     11851     11853     11844     11848     11851     11858
     11845     11844     11848     11849     11845     11844     11848     11850
     11845     11844     11848     11851     11846     11844     11848     11849
     11846     11844     11848     11850     11846     11844     11848     11851
     11847     11844     11848     11849     11847     11844     11848     11850
     11847     11844     11848     11851     11848     11851     11858     11854
     11849     11848     11851     11852     11849     11848     11851     11853
     11849     11848     11851     11858     11850     11848     11851     11852
     11850     11848     11851     11853     11850     11848     11851     11858
     11851     11858     11854     11855     11851     11858     11854     11856
     11851     11858     11854     11857     11852     11851     11858     11854
     11853     11851     11858     11854     11854     11857     11859     11860
     11854     11857     11859     11861     11854     11857     11859     11862
     11855     11854     11857     11859     11856     11854     11857     11859
     11857     11859     11862     11863     11857     11859     11862     11864
     11857     11859     11862     11870     11858     11854     11857     11859
     11859     11862     11864     11865     11859     11862     11870     11871
     11859     11862     11870     11872     11859     11862     11870     11873
     11860     11859     11862     11863     11860     11859     11862     11864
     11860     11859     11862     11870     11861     11859     11862     11863
     11861     11859     11862     11864     11861     11859     11862     11870
     11862     11864     11865     11866     11862     11864     11865     11867
     11862     11870     11873     11874     11863     11862     11864     11865
     11863     11862     11870     11871     11863     11862     11870     11872
     11863     11862     11870     11873     11864     11862     11870     11871
     11864     11862     11870     11872     11864     11862     11870     11873
     11864     11865     11867     11868     11864     11865     11867     11869
     11864     11865     11867     11879     11865     11864     11862     11870
     11865     11867     11879     11880     11865     11867     11879     11881
     11865     11867     11879     11882     11866     11865     11867     11868
     11866     11865     11867     11869     11866     11865     11867     11879
     11867     11879     11882     11883     11867     11879     11882     11884
     11867     11879     11882     11885     11868     11867     11879     11880
     11868     11867     11879     11881     11868     11867     11879     11882
     11869     11867     11879     11880     11869     11867     11879     11881
     11869     11867     11879     11882     11870     11873     11874     11875
     11870     11873     11874     11876     11871     11870     11873     11874
     11872     11870     11873     11874     11873     11874     11876     11877
     11873     11874     11876     11878     11873     11874     11876     11926
     11874     11876     11926     11927     11874     11876     11926     11928
     11874     11876     11926     11929     11875     11874     11876     11877
     11875     11874     11876     11878     11875     11874     11876     11926
     11876     11926     11929     11930     11876     11926     11929     11931
     11876     11926     11929     11932     11877     11876     11926     11927
     11877     11876     11926     11928     11877     11876     11926     11929
     11878     11876     11926     11927     11878     11876     11926     11928
     11878     11876     11926     11929     11879     11882     11885     11886
     11879     11882     11885     11887     11879     11882     11885     11888
     11880     11879     11882     11883     11880     11879     11882     11884
     11880     11879     11882     11885     11881     11879     11882     11883
     11881     11879     11882     11884     11881     11879     11882     11885
     11882     11885     11888     11889     11882     11885     11888     11890
     11882     11885     11888     11891     11883     11882     11885     11886
     11883     11882     11885     11887     11883     11882     11885     11888
     11884     11882     11885     11886     11884     11882     11885     11887
     11884     11882     11885     11888     11885     11888     11891     11892
     11885     11888     11891     11893     11885     11888     11891     11894
     11886     11885     11888     11889     11886     11885     11888     11890
     11886     11885     11888     11891     11887     11885     11888     11889
     11887     11885     11888     11890     11887     11885     11888     11891
     11888     11891     11894     11895     11888     11891     11894     11896
     11888     11891     11894     11897     11889     11888     11891     11892
     11889     11888     11891     11893     11889     11888     11891     11894
     11890     11888     11891     11892     11890     11888     11891     11893
     11890     11888     11891     11894     11891     11894     11897     11898
     11891     11894     11897     11899     11892     11891     11894     11895
     11892     11891     11894     11896     11892     11891     11894     11897
     11893     11891     11894     11895     11893     11891     11894     11896
     11893     11891     11894     11897     11894     11897     11899     11900
     11894     11897     11899     11901     11895     11894     11897     11898
     11895     11894     11897     11899     11896     11894     11897     11898
     11896     11894     11897     11899     11897     11899     11901     11902
     11897     11899     11901     11903     11897     11899     11901     11904
     11898     11897     11899     11900     11898     11897     11899     11901
     11899     11901     11904     11905     11899     11901     11904     11906
     11899     11901     11904     11907     11900     11899     11901     11902
     11900     11899     11901     11903     11900     11899     11901     11904
     11901     11904     11907     11908     11901     11904     11907     11909
     11901     11904     11907     11910     11902     11901     11904     11905
     11902     11901     11904     11906     11902     11901     11904     11907
     11903     11901     11904     11905     11903     11901     11904     11906
     11903     11901     11904     11907     11904     11907     11910     11911
     11904     11907     11910     11912     11904     11907     11910     11913
     11905     11904     11907     11908     11905     11904     11907     11909
     11905     11904     11907     11910     11906     11904     11907     11908
     11906     11904     11907     11909     11906     11904     11907     11910
     11907     11910     11913     11914     11907     11910     11913     11915
     11907     11910     11913     11916     11908     11907     11910     11911
     11908     11907     11910     11912     11908     11907     11910     11913
     11909     11907     11910     11911     11909     11907     11910     11912
     11909     11907     11910     11913     11910     11913     11916     11917
     11910     11913     11916     11918     11910     11913     11916     11919
     11911     11910     11913     11914     11911     11910     11913     11915
     11911     11910     11913     11916     11912     11910     11913     11914
     11912     11910     11913     11915     11912     11910     11913     11916
     11913     11916     11919     11920     11913     11916     11919     11921
     11913     11916     11919     11922     11914     11913     11916     11917
     11914     11913     11916     11918     11914     11913     11916     11919
     11915     11913     11916     11917     11915     11913     11916     11918
     11915     11913     11916     11919     11916     11919     11922     11923
     11916     11919     11922     11924     11916     11919     11922     11925
     11917     11916     11919     11920     11917     11916     11919     11921
     11917     11916     11919     11922     11918     11916     11919     11920
     11918     11916     11919     11921     11918     11916     11919     11922
     11920     11919     11922     11923     11920     11919     11922     11924
     11920     11919     11922     11925     11921     11919     11922     11923
     11921     11919     11922     11924     11921     11919     11922     11925
     11926     11929     11932     11933     11926     11929     11932     11934
     11926     11929     11932     11935     11927     11926     11929     11930
     11927     11926     11929     11931     11927     11926     11929     11932
     11928     11926     11929     11930     11928     11926     11929     11931
     11928     11926     11929     11932     11929     11932     11935     11936
     11929     11932     11935     11937     11929     11932     11935     11938
     11930     11929     11932     11933     11930     11929     11932     11934
     11930     11929     11932     11935     11931     11929     11932     11933
     11931     11929     11932     11934     11931     11929     11932     11935
     11932     11935     11938     11939     11932     11935     11938     11940
     11932     11935     11938     11941     11933     11932     11935     11936
     11933     11932     11935     11937     11933     11932     11935     11938
     11934     11932     11935     11936     11934     11932     11935     11937
     11934     11932     11935     11938     11935     11938     11941     11942
     11935     11938     11941     11943     11935     11938     11941     11944
     11936     11935     11938     11939     11936     11935     11938     11940
     11936     11935     11938     11941     11937     11935     11938     11939
     11937     11935     11938     11940     11937     11935     11938     11941
     11938     11941     11944     11945     11938     11941     11944     11946
     11938     11941     11944     11947     11939     11938     11941     11942
     11939     11938     11941     11943     11939     11938     11941     11944
     11940     11938     11941     11942     11940     11938     11941     11943
     11940     11938     11941     11944     11941     11944     11947     11948
     11941     11944     11947     11949     11941     11944     11947     11950
     11942     11941     11944     11945     11942     11941     11944     11946
     11942     11941     11944     11947     11943     11941     11944     11945
     11943     11941     11944     11946     11943     11941     11944     11947
     11944     11947     11950     11951     11944     11947     11950     11952
     11944     11947     11950     11953     11945     11944     11947     11948
     11945     11944     11947     11949     11945     11944     11947     11950
     11946     11944     11947     11948     11946     11944     11947     11949
     11946     11944     11947     11950     11947     11950     11953     11954
     11947     11950     11953     11955     11947     11950     11953     11956
     11948     11947     11950     11951     11948     11947     11950     11952
     11948     11947     11950     11953     11949     11947     11950     11951
     11949     11947     11950     11952     11949     11947     11950     11953
     11950     11953     11956     11957     11950     11953     11956     11958
     11950     11953     11956     11959     11951     11950     11953     11954
     11951     11950     11953     11955     11951     11950     11953     11956
     11952     11950     11953     11954     11952     11950     11953     11955
     11952     11950     11953     11956     11953     11956     11959     11960
     11953     11956     11959     11961     11953     11956     11959     11962
     11954     11953     11956     11957     11954     11953     11956     11958
     11954     11953     11956     11959     11955     11953     11956     11957
     11955     11953     11956     11958     11955     11953     11956     11959
     11956     11959     11962     11963     11956     11959     11962     11964
     11956     11959     11962     11965     11957     11956     11959     11960
     11957     11956     11959     11961     11957     11956     11959     11962
     11958     11956     11959     11960     11958     11956     11959     11961
     11958     11956     11959     11962     11959     11962     11965     11966
     11959     11962     11965     11967     11959     11962     11965     11968
     11960     11959     11962     11963     11960     11959     11962     11964
     11960     11959     11962     11965     11961     11959     11962     11963
     11961     11959     11962     11964     11961     11959     11962     11965
     11963     11962     11965     11966     11963     11962     11965     11967
     11963     11962     11965     11968     11964     11962     11965     11966
     11964     11962     11965     11967     11964     11962     11965     11968
     11969     11973     11976     11977     11969     11973     11976     11978
     11969     11973     11976     11983     11970     11969     11973     11974
     11970     11969     11973     11975     11970     11969     11973     11976
     11971     11969     11973     11974     11971     11969     11973     11975
     11971     11969     11973     11976     11972     11969     11973     11974
     11972     11969     11973     11975     11972     11969     11973     11976
     11973     11976     11983     11979     11974     11973     11976     11977
     11974     11973     11976     11978     11974     11973     11976     11983
     11975     11973     11976     11977     11975     11973     11976     11978
     11975     11973     11976     11983     11976     11983     11979     11980
     11976     11983     11979     11981     11976     11983     11979     11982
     11977     11976     11983     11979     11978     11976     11983     11979
     11979     11982     11984     11985     11979     11982     11984     11986
     11979     11982     11984     11987     11980     11979     11982     11984
     11981     11979     11982     11984     11982     11984     11987     11988
     11982     11984     11987     11989     11982     11984     11987     11995
     11983     11979     11982     11984     11984     11987     11989     11990
     11984     11987     11995     11996     11984     11987     11995     11997
     11984     11987     11995     11998     11985     11984     11987     11988
     11985     11984     11987     11989     11985     11984     11987     11995
     11986     11984     11987     11988     11986     11984     11987     11989
     11986     11984     11987     11995     11987     11989     11990     11991
     11987     11989     11990     11992     11987     11995     11998     11999
     11988     11987     11989     11990     11988     11987     11995     11996
     11988     11987     11995     11997     11988     11987     11995     11998
     11989     11987     11995     11996     11989     11987     11995     11997
     11989     11987     11995     11998     11989     11990     11992     11993
     11989     11990     11992     11994     11989     11990     11992     12004
     11990     11989     11987     11995     11990     11992     12004     12005
     11990     11992     12004     12006     11990     11992     12004     12007
     11991     11990     11992     11993     11991     11990     11992     11994
     11991     11990     11992     12004     11992     12004     12007     12008
     11992     12004     12007     12009     11992     12004     12007     12010
     11993     11992     12004     12005     11993     11992     12004     12006
     11993     11992     12004     12007     11994     11992     12004     12005
     11994     11992     12004     12006     11994     11992     12004     12007
     11995     11998     11999     12000     11995     11998     11999     12001
     11996     11995     11998     11999     11997     11995     11998     11999
     11998     11999     12001     12002     11998     11999     12001     12003
     11998     11999     12001     12048     11999     12001     12048     12049
     11999     12001     12048     12050     11999     12001     12048     12051
     12000     11999     12001     12002     12000     11999     12001     12003
     12000     11999     12001     12048     12001     12048     12051     12052
     12001     12048     12051     12053     12001     12048     12051     12054
     12002     12001     12048     12049     12002     12001     12048     12050
     12002     12001     12048     12051     12003     12001     12048     12049
     12003     12001     12048     12050     12003     12001     12048     12051
     12004     12007     12010     12011     12004     12007     12010     12012
     12004     12007     12010     12013     12005     12004     12007     12008
     12005     12004     12007     12009     12005     12004     12007     12010
     12006     12004     12007     12008     12006     12004     12007     12009
     12006     12004     12007     12010     12007     12010     12013     12014
     12007     12010     12013     12015     12007     12010     12013     12016
     12008     12007     12010     12011     12008     12007     12010     12012
     12008     12007     12010     12013     12009     12007     12010     12011
     12009     12007     12010     12012     12009     12007     12010     12013
     12010     12013     12016     12017     12010     12013     12016     12018
     12010     12013     12016     12019     12011     12010     12013     12014
     12011     12010     12013     12015     12011     12010     12013     12016
     12012     12010     12013     12014     12012     12010     12013     12015
     12012     12010     12013     12016     12013     12016     12019     12020
     12013     12016     12019     12021     12013     12016     12019     12022
     12014     12013     12016     12017     12014     12013     12016     12018
     12014     12013     12016     12019     12015     12013     12016     12017
     12015     12013     12016     12018     12015     12013     12016     12019
     12016     12019     12022     12023     12016     12019     12022     12024
     12016     12019     12022     12027     12017     12016     12019     12020
     12017     12016     12019     12021     12017     12016     12019     12022
     12018     12016     12019     12020     12018     12016     12019     12021
     12018     12016     12019     12022     12019     12022     12024     12025
     12019     12022     12024     12026     12019     12022     12024     12027
     12019     12022     12027     12024     12019     12022     12027     12028
     12019     12022     12027     12029     12020     12019     12022     12023
     12020     12019     12022     12024     12020     12019     12022     12027
     12021     12019     12022     12023     12021     12019     12022     12024
     12021     12019     12022     12027     12022     12024     12027     12028
     12022     12024     12027     12029     12022     12027     12024     12025
     12022     12027     12024     12026     12022     12027     12029     12030
     12022     12027     12029     12031     12022     12027     12029     12032
     12023     12022     12024     12025     12023     12022     12024     12026
     12023     12022     12024     12027     12023     12022     12027     12024
     12023     12022     12027     12028     12023     12022     12027     12029
     12024     12022     12027     12028     12024     12022     12027     12029
     12024     12027     12029     12030     12024     12027     12029     12031
     12024     12027     12029     12032     12025     12024     12022     12027
     12025     12024     12027     12028     12025     12024     12027     12029
     12026     12024     12022     12027     12026     12024     12027     12028
     12026     12024     12027     12029     12027     12029     12032     12033
     12027     12029     12032     12034     12027     12029     12032     12035
     12028     12027     12029     12030     12028     12027     12029     12031
     12028     12027     12029     12032     12029     12032     12035     12036
     12029     12032     12035     12037     12029     12032     12035     12038
     12030     12029     12032     12033     12030     12029     12032     12034
     12030     12029     12032     12035     12031     12029     12032     12033
     12031     12029     12032     12034     12031     12029     12032     12035
     12032     12035     12038     12039     12032     12035     12038     12040
     12032     12035     12038     12041     12033     12032     12035     12036
     12033     12032     12035     12037     12033     12032     12035     12038
     12034     12032     12035     12036     12034     12032     12035     12037
     12034     12032     12035     12038     12035     12038     12041     12042
     12035     12038     12041     12043     12035     12038     12041     12044
     12036     12035     12038     12039     12036     12035     12038     12040
     12036     12035     12038     12041     12037     12035     12038     12039
     12037     12035     12038     12040     12037     12035     12038     12041
     12038     12041     12044     12045     12038     12041     12044     12046
     12038     12041     12044     12047     12039     12038     12041     12042
     12039     12038     12041     12043     12039     12038     12041     12044
     12040     12038     12041     12042     12040     12038     12041     12043
     12040     12038     12041     12044     12042     12041     12044     12045
     12042     12041     12044     12046     12042     12041     12044     12047
     12043     12041     12044     12045     12043     12041     12044     12046
     12043     12041     12044     12047     12048     12051     12054     12055
     12048     12051     12054     12056     12048     12051     12054     12057
     12049     12048     12051     12052     12049     12048     12051     12053
     12049     12048     12051     12054     12050     12048     12051     12052
     12050     12048     12051     12053     12050     12048     12051     12054
     12051     12054     12057     12058     12051     12054     12057     12059
     12051     12054     12057     12060     12052     12051     12054     12055
     12052     12051     12054     12056     12052     12051     12054     12057
     12053     12051     12054     12055     12053     12051     12054     12056
     12053     12051     12054     12057     12054     12057     12060     12061
     12054     12057     12060     12062     12054     12057     12060     12063
     12055     12054     12057     12058     12055     12054     12057     12059
     12055     12054     12057     12060     12056     12054     12057     12058
     12056     12054     12057     12059     12056     12054     12057     12060
     12057     12060     12063     12064     12057     12060     12063     12065
     12057     12060     12063     12066     12058     12057     12060     12061
     12058     12057     12060     12062     12058     12057     12060     12063
     12059     12057     12060     12061     12059     12057     12060     12062
     12059     12057     12060     12063     12060     12063     12066     12067
     12060     12063     12066     12068     12060     12063     12066     12069
     12061     12060     12063     12064     12061     12060     12063     12065
     12061     12060     12063     12066     12062     12060     12063     12064
     12062     12060     12063     12065     12062     12060     12063     12066
     12063     12066     12069     12070     12063     12066     12069     12071
     12063     12066     12069     12072     12064     12063     12066     12067
     12064     12063     12066     12068     12064     12063     12066     12069
     12065     12063     12066     12067     12065     12063     12066     12068
     12065     12063     12066     12069     12066     12069     12072     12073
     12066     12069     12072     12074     12066     12069     12072     12075
     12067     12066     12069     12070     12067     12066     12069     12071
     12067     12066     12069     12072     12068     12066     12069     12070
     12068     12066     12069     12071     12068     12066     12069     12072
     12069     12072     12075     12076     12069     12072     12075     12077
     12069     12072     12075     12078     12070     12069     12072     12073
     12070     12069     12072     12074     12070     12069     12072     12075
     12071     12069     12072     12073     12071     12069     12072     12074
     12071     12069     12072     12075     12072     12075     12078     12079
     12072     12075     12078     12080     12072     12075     12078     12081
     12073     12072     12075     12076     12073     12072     12075     12077
     12073     12072     12075     12078     12074     12072     12075     12076
     12074     12072     12075     12077     12074     12072     12075     12078
     12075     12078     12081     12082     12075     12078     12081     12083
     12075     12078     12081     12084     12076     12075     12078     12079
     12076     12075     12078     12080     12076     12075     12078     12081
     12077     12075     12078     12079     12077     12075     12078     12080
     12077     12075     12078     12081     12078     12081     12084     12085
     12078     12081     12084     12086     12078     12081     12084     12087
     12079     12078     12081     12082     12079     12078     12081     12083
     12079     12078     12081     12084     12080     12078     12081     12082
     12080     12078     12081     12083     12080     12078     12081     12084
     12081     12084     12087     12088     12081     12084     12087     12089
     12081     12084     12087     12090     12082     12081     12084     12085
     12082     12081     12084     12086     12082     12081     12084     12087
     12083     12081     12084     12085     12083     12081     12084     12086
     12083     12081     12084     12087     12085     12084     12087     12088
     12085     12084     12087     12089     12085     12084     12087     12090
     12086     12084     12087     12088     12086     12084     12087     12089
     12086     12084     12087     12090     12091     12096     12098     12099
     12091     12096     12100     12101     12091     12096     12100     12102
     12091     12096     12100     12107     12092     12091     12094     12095
     12092     12091     12096     12097     12092     12091     12096     12098
     12092     12091     12096     12100     12093     12091     12094     12095
     12093     12091     12096     12097     12093     12091     12096     12098
     12093     12091     12096     12100     12094     12091     12096     12097
     12094     12091     12096     12098     12094     12091     12096     12100
     12095     12094     12091     12096     12096     12100     12107     12103
     12097     12096     12098     12099     12097     12096     12100     12101
     12097     12096     12100     12102     12097     12096     12100     12107
     12098     12096     12100     12101     12098     12096     12100     12102
     12098     12096     12100     12107     12099     12098     12096     12100
     12100     12107     12103     12104     12100     12107     12103     12105
     12100     12107     12103     12106     12101     12100     12107     12103
     12102     12100     12107     12103     12103     12106     12108     12109
     12103     12106     12108     12110     12103     12106     12108     12111
     12104     12103     12106     12108     12105     12103     12106     12108
     12106     12108     12111     12112     12106     12108     12111     12113
     12106     12108     12111     12119     12107     12103     12106     12108
     12108     12111     12113     12114     12108     12111     12119     12120
     12108     12111     12119     12121     12108     12111     12119     12122
     12109     12108     12111     12112     12109     12108     12111     12113
     12109     12108     12111     12119     12110     12108     12111     12112
     12110     12108     12111     12113     12110     12108     12111     12119
     12111     12113     12114     12115     12111     12113     12114     12116
     12111     12119     12122     12123     12112     12111     12113     12114
     12112     12111     12119     12120     12112     12111     12119     12121
     12112     12111     12119     12122     12113     12111     12119     12120
     12113     12111     12119     12121     12113     12111     12119     12122
     12113     12114     12116     12117     12113     12114     12116     12118
     12113     12114     12116     12128     12114     12113     12111     12119
     12114     12116     12128     12129     12114     12116     12128     12130
     12114     12116     12128     12131     12115     12114     12116     12117
     12115     12114     12116     12118     12115     12114     12116     12128
     12116     12128     12131     12132     12116     12128     12131     12133
     12116     12128     12131     12134     12117     12116     12128     12129
     12117     12116     12128     12130     12117     12116     12128     12131
     12118     12116     12128     12129     12118     12116     12128     12130
     12118     12116     12128     12131     12119     12122     12123     12124
     12119     12122     12123     12125     12120     12119     12122     12123
     12121     12119     12122     12123     12122     12123     12125     12126
     12122     12123     12125     12127     12122     12123     12125     12172
     12123     12125     12172     12173     12123     12125     12172     12174
     12123     12125     12172     12175     12124     12123     12125     12126
     12124     12123     12125     12127     12124     12123     12125     12172
     12125     12172     12175     12176     12125     12172     12175     12177
     12125     12172     12175     12178     12126     12125     12172     12173
     12126     12125     12172     12174     12126     12125     12172     12175
     12127     12125     12172     12173     12127     12125     12172     12174
     12127     12125     12172     12175     12128     12131     12134     12135
     12128     12131     12134     12136     12128     12131     12134     12137
     12129     12128     12131     12132     12129     12128     12131     12133
     12129     12128     12131     12134     12130     12128     12131     12132
     12130     12128     12131     12133     12130     12128     12131     12134
     12131     12134     12137     12138     12131     12134     12137     12139
     12131     12134     12137     12140     12132     12131     12134     12135
     12132     12131     12134     12136     12132     12131     12134     12137
     12133     12131     12134     12135     12133     12131     12134     12136
     12133     12131     12134     12137     12134     12137     12140     12141
     12134     12137     12140     12142     12134     12137     12140     12143
     12135     12134     12137     12138     12135     12134     12137     12139
     12135     12134     12137     12140     12136     12134     12137     12138
     12136     12134     12137     12139     12136     12134     12137     12140
     12137     12140     12143     12144     12137     12140     12143     12145
     12137     12140     12143     12146     12138     12137     12140     12141
     12138     12137     12140     12142     12138     12137     12140     12143
     12139     12137     12140     12141     12139     12137     12140     12142
     12139     12137     12140     12143     12140     12143     12146     12147
     12140     12143     12146     12148     12140     12143     12146     12151
     12141     12140     12143     12144     12141     12140     12143     12145
     12141     12140     12143     12146     12142     12140     12143     12144
     12142     12140     12143     12145     12142     12140     12143     12146
     12143     12146     12148     12149     12143     12146     12148     12150
     12143     12146     12148     12151     12143     12146     12151     12148
     12143     12146     12151     12152     12143     12146     12151     12153
     12144     12143     12146     12147     12144     12143     12146     12148
     12144     12143     12146     12151     12145     12143     12146     12147
     12145     12143     12146     12148     12145     12143     12146     12151
     12146     12148     12151     12152     12146     12148     12151     12153
     12146     12151     12148     12149     12146     12151     12148     12150
     12146     12151     12153     12154     12146     12151     12153     12155
     12146     12151     12153     12156     12147     12146     12148     12149
     12147     12146     12148     12150     12147     12146     12148     12151
     12147     12146     12151     12148     12147     12146     12151     12152
     12147     12146     12151     12153     12148     12146     12151     12152
     12148     12146     12151     12153     12148     12151     12153     12154
     12148     12151     12153     12155     12148     12151     12153     12156
     12149     12148     12146     12151     12149     12148     12151     12152
     12149     12148     12151     12153     12150     12148     12146     12151
     12150     12148     12151     12152     12150     12148     12151     12153
     12151     12153     12156     12157     12151     12153     12156     12158
     12151     12153     12156     12159     12152     12151     12153     12154
     12152     12151     12153     12155     12152     12151     12153     12156
     12153     12156     12159     12160     12153     12156     12159     12161
     12153     12156     12159     12162     12154     12153     12156     12157
     12154     12153     12156     12158     12154     12153     12156     12159
     12155     12153     12156     12157     12155     12153     12156     12158
     12155     12153     12156     12159     12156     12159     12162     12163
     12156     12159     12162     12164     12156     12159     12162     12165
     12157     12156     12159     12160     12157     12156     12159     12161
     12157     12156     12159     12162     12158     12156     12159     12160
     12158     12156     12159     12161     12158     12156     12159     12162
     12159     12162     12165     12166     12159     12162     12165     12167
     12159     12162     12165     12168     12160     12159     12162     12163
     12160     12159     12162     12164     12160     12159     12162     12165
     12161     12159     12162     12163     12161     12159     12162     12164
     12161     12159     12162     12165     12162     12165     12168     12169
     12162     12165     12168     12170     12162     12165     12168     12171
     12163     12162     12165     12166     12163     12162     12165     12167
     12163     12162     12165     12168     12164     12162     12165     12166
     12164     12162     12165     12167     12164     12162     12165     12168
     12166     12165     12168     12169     12166     12165     12168     12170
     12166     12165     12168     12171     12167     12165     12168     12169
     12167     12165     12168     12170     12167     12165     12168     12171
     12172     12175     12178     12179     12172     12175     12178     12180
     12172     12175     12178     12181     12173     12172     12175     12176
     12173     12172     12175     12177     12173     12172     12175     12178
     12174     12172     12175     12176     12174     12172     12175     12177
     12174     12172     12175     12178     12175     12178     12181     12182
     12175     12178     12181     12183     12175     12178     12181     12184
     12176     12175     12178     12179     12176     12175     12178     12180
     12176     12175     12178     12181     12177     12175     12178     12179
     12177     12175     12178     12180     12177     12175     12178     12181
     12178     12181     12184     12185     12178     12181     12184     12186
     12178     12181     12184     12187     12179     12178     12181     12182
     12179     12178     12181     12183     12179     12178     12181     12184
     12180     12178     12181     12182     12180     12178     12181     12183
     12180     12178     12181     12184     12181     12184     12187     12188
     12181     12184     12187     12189     12181     12184     12187     12190
     12182     12181     12184     12185     12182     12181     12184     12186
     12182     12181     12184     12187     12183     12181     12184     12185
     12183     12181     12184     12186     12183     12181     12184     12187
     12184     12187     12190     12191     12184     12187     12190     12192
     12184     12187     12190     12193     12185     12184     12187     12188
     12185     12184     12187     12189     12185     12184     12187     12190
     12186     12184     12187     12188     12186     12184     12187     12189
     12186     12184     12187     12190     12187     12190     12193     12194
     12187     12190     12193     12195     12187     12190     12193     12196
     12188     12187     12190     12191     12188     12187     12190     12192
     12188     12187     12190     12193     12189     12187     12190     12191
     12189     12187     12190     12192     12189     12187     12190     12193
     12190     12193     12196     12197     12190     12193     12196     12198
     12190     12193     12196     12199     12191     12190     12193     12194
     12191     12190     12193     12195     12191     12190     12193     12196
     12192     12190     12193     12194     12192     12190     12193     12195
     12192     12190     12193     12196     12193     12196     12199     12200
     12193     12196     12199     12201     12193     12196     12199     12202
     12194     12193     12196     12197     12194     12193     12196     12198
     12194     12193     12196     12199     12195     12193     12196     12197
     12195     12193     12196     12198     12195     12193     12196     12199
     12196     12199     12202     12203     12196     12199     12202     12204
     12196     12199     12202     12205     12197     12196     12199     12200
     12197     12196     12199     12201     12197     12196     12199     12202
     12198     12196     12199     12200     12198     12196     12199     12201
     12198     12196     12199     12202     12199     12202     12205     12206
     12199     12202     12205     12207     12199     12202     12205     12208
     12200     12199     12202     12203     12200     12199     12202     12204
     12200     12199     12202     12205     12201     12199     12202     12203
     12201     12199     12202     12204     12201     12199     12202     12205
     12202     12205     12208     12209     12202     12205     12208     12210
     12202     12205     12208     12211     12203     12202     12205     12206
     12203     12202     12205     12207     12203     12202     12205     12208
     12204     12202     12205     12206     12204     12202     12205     12207
     12204     12202     12205     12208     12205     12208     12211     12212
     12205     12208     12211     12213     12205     12208     12211     12214
     12206     12205     12208     12209     12206     12205     12208     12210
     12206     12205     12208     12211     12207     12205     12208     12209
     12207     12205     12208     12210     12207     12205     12208     12211
     12209     12208     12211     12212     12209     12208     12211     12213
     12209     12208     12211     12214     12210     12208     12211     12212
     12210     12208     12211     12213     12210     12208     12211     12214
     12215     12219     12222     12223     12215     12219     12222     12224
     12215     12219     12222     12229     12216     12215     12219     12220
     12216     12215     12219     12221     12216     12215     12219     12222
     12217     12215     12219     12220     12217     12215     12219     12221
     12217     12215     12219     12222     12218     12215     12219     12220
     12218     12215     12219     12221     12218     12215     12219     12222
     12219     12222     12229     12225     12220     12219     12222     12223
     12220     12219     12222     12224     12220     12219     12222     12229
     12221     12219     12222     12223     12221     12219     12222     12224
     12221     12219     12222     12229     12222     12229     12225     12226
     12222     12229     12225     12227     12222     12229     12225     12228
     12223     12222     12229     12225     12224     12222     12229     12225
     12225     12228     12230     12231     12225     12228     12230     12232
     12225     12228     12230     12233     12226     12225     12228     12230
     12227     12225     12228     12230     12228     12230     12233     12234
     12228     12230     12233     12235     12228     12230     12233     12241
     12229     12225     12228     12230     12230     12233     12235     12236
     12230     12233     12241     12242     12230     12233     12241     12243
     12230     12233     12241     12244     12231     12230     12233     12234
     12231     12230     12233     12235     12231     12230     12233     12241
     12232     12230     12233     12234     12232     12230     12233     12235
     12232     12230     12233     12241     12233     12235     12236     12237
     12233     12235     12236     12238     12233     12241     12244     12245
     12234     12233     12235     12236     12234     12233     12241     12242
     12234     12233     12241     12243     12234     12233     12241     12244
     12235     12233     12241     12242     12235     12233     12241     12243
     12235     12233     12241     12244     12235     12236     12238     12239
     12235     12236     12238     12240     12235     12236     12238     12250
     12236     12235     12233     12241     12236     12238     12250     12251
     12236     12238     12250     12252     12236     12238     12250     12253
     12237     12236     12238     12239     12237     12236     12238     12240
     12237     12236     12238     12250     12238     12250     12253     12254
     12238     12250     12253     12255     12238     12250     12253     12256
     12239     12238     12250     12251     12239     12238     12250     12252
     12239     12238     12250     12253     12240     12238     12250     12251
     12240     12238     12250     12252     12240     12238     12250     12253
     12241     12244     12245     12246     12241     12244     12245     12247
     12242     12241     12244     12245     12243     12241     12244     12245
     12244     12245     12247     12248     12244     12245     12247     12249
     12244     12245     12247     12294     12245     12247     12294     12295
     12245     12247     12294     12296     12245     12247     12294     12297
     12246     12245     12247     12248     12246     12245     12247     12249
     12246     12245     12247     12294     12247     12294     12297     12298
     12247     12294     12297     12299     12247     12294     12297     12300
     12248     12247     12294     12295     12248     12247     12294     12296
     12248     12247     12294     12297     12249     12247     12294     12295
     12249     12247     12294     12296     12249     12247     12294     12297
     12250     12253     12256     12257     12250     12253     12256     12258
     12250     12253     12256     12259     12251     12250     12253     12254
     12251     12250     12253     12255     12251     12250     12253     12256
     12252     12250     12253     12254     12252     12250     12253     12255
     12252     12250     12253     12256     12253     12256     12259     12260
     12253     12256     12259     12261     12253     12256     12259     12262
     12254     12253     12256     12257     12254     12253     12256     12258
     12254     12253     12256     12259     12255     12253     12256     12257
     12255     12253     12256     12258     12255     12253     12256     12259
     12256     12259     12262     12263     12256     12259     12262     12264
     12256     12259     12262     12265     12257     12256     12259     12260
     12257     12256     12259     12261     12257     12256     12259     12262
     12258     12256     12259     12260     12258     12256     12259     12261
     12258     12256     12259     12262     12259     12262     12265     12266
     12259     12262     12265     12267     12259     12262     12265     12268
     12260     12259     12262     12263     12260     12259     12262     12264
     12260     12259     12262     12265     12261     12259     12262     12263
     12261     12259     12262     12264     12261     12259     12262     12265
     12262     12265     12268     12269     12262     12265     12268     12270
     12262     12265     12268     12273     12263     12262     12265     12266
     12263     12262     12265     12267     12263     12262     12265     12268
     12264     12262     12265     12266     12264     12262     12265     12267
     12264     12262     12265     12268     12265     12268     12270     12271
     12265     12268     12270     12272     12265     12268     12270     12273
     12265     12268     12273     12270     12265     12268     12273     12274
     12265     12268     12273     12275     12266     12265     12268     12269
     12266     12265     12268     12270     12266     12265     12268     12273
     12267     12265     12268     12269     12267     12265     12268     12270
     12267     12265     12268     12273     12268     12270     12273     12274
     12268     12270     12273     12275     12268     12273     12270     12271
     12268     12273     12270     12272     12268     12273     12275     12276
     12268     12273     12275     12277     12268     12273     12275     12278
     12269     12268     12270     12271     12269     12268     12270     12272
     12269     12268     12270     12273     12269     12268     12273     12270
     12269     12268     12273     12274     12269     12268     12273     12275
     12270     12268     12273     12274     12270     12268     12273     12275
     12270     12273     12275     12276     12270     12273     12275     12277
     12270     12273     12275     12278     12271     12270     12268     12273
     12271     12270     12273     12274     12271     12270     12273     12275
     12272     12270     12268     12273     12272     12270     12273     12274
     12272     12270     12273     12275     12273     12275     12278     12279
     12273     12275     12278     12280     12273     12275     12278     12281
     12274     12273     12275     12276     12274     12273     12275     12277
     12274     12273     12275     12278     12275     12278     12281     12282
     12275     12278     12281     12283     12275     12278     12281     12284
     12276     12275     12278     12279     12276     12275     12278     12280
     12276     12275     12278     12281     12277     12275     12278     12279
     12277     12275     12278     12280     12277     12275     12278     12281
     12278     12281     12284     12285     12278     12281     12284     12286
     12278     12281     12284     12287     12279     12278     12281     12282
     12279     12278     12281     12283     12279     12278     12281     12284
     12280     12278     12281     12282     12280     12278     12281     12283
     12280     12278     12281     12284     12281     12284     12287     12288
     12281     12284     12287     12289     12281     12284     12287     12290
     12282     12281     12284     12285     12282     12281     12284     12286
     12282     12281     12284     12287     12283     12281     12284     12285
     12283     12281     12284     12286     12283     12281     12284     12287
     12284     12287     12290     12291     12284     12287     12290     12292
     12284     12287     12290     12293     12285     12284     12287     12288
     12285     12284     12287     12289     12285     12284     12287     12290
     12286     12284     12287     12288     12286     12284     12287     12289
     12286     12284     12287     12290     12288     12287     12290     12291
     12288     12287     12290     12292     12288     12287     12290     12293
     12289     12287     12290     12291     12289     12287     12290     12292
     12289     12287     12290     12293     12294     12297     12300     12301
     12294     12297     12300     12302     12294     12297     12300     12303
     12295     12294     12297     12298     12295     12294     12297     12299
     12295     12294     12297     12300     12296     12294     12297     12298
     12296     12294     12297     12299     12296     12294     12297     12300
     12297     12300     12303     12304     12297     12300     12303     12305
     12297     12300     12303     12306     12298     12297     12300     12301
     12298     12297     12300     12302     12298     12297     12300     12303
     12299     12297     12300     12301     12299     12297     12300     12302
     12299     12297     12300     12303     12300     12303     12306     12307
     12300     12303     12306     12308     12300     12303     12306     12309
     12301     12300     12303     12304     12301     12300     12303     12305
     12301     12300     12303     12306     12302     12300     12303     12304
     12302     12300     12303     12305     12302     12300     12303     12306
     12303     12306     12309     12310     12303     12306     12309     12311
     12303     12306     12309     12312     12304     12303     12306     12307
     12304     12303     12306     12308     12304     12303     12306     12309
     12305     12303     12306     12307     12305     12303     12306     12308
     12305     12303     12306     12309     12306     12309     12312     12313
     12306     12309     12312     12314     12306     12309     12312     12315
     12307     12306     12309     12310     12307     12306     12309     12311
     12307     12306     12309     12312     12308     12306     12309     12310
     12308     12306     12309     12311     12308     12306     12309     12312
     12309     12312     12315     12316     12309     12312     12315     12317
     12309     12312     12315     12318     12310     12309     12312     12313
     12310     12309     12312     12314     12310     12309     12312     12315
     12311     12309     12312     12313     12311     12309     12312     12314
     12311     12309     12312     12315     12312     12315     12318     12319
     12312     12315     12318     12320     12312     12315     12318     12321
     12313     12312     12315     12316     12313     12312     12315     12317
     12313     12312     12315     12318     12314     12312     12315     12316
     12314     12312     12315     12317     12314     12312     12315     12318
     12315     12318     12321     12322     12315     12318     12321     12323
     12315     12318     12321     12324     12316     12315     12318     12319
     12316     12315     12318     12320     12316     12315     12318     12321
     12317     12315     12318     12319     12317     12315     12318     12320
     12317     12315     12318     12321     12318     12321     12324     12325
     12318     12321     12324     12326     12318     12321     12324     12327
     12319     12318     12321     12322     12319     12318     12321     12323
     12319     12318     12321     12324     12320     12318     12321     12322
     12320     12318     12321     12323     12320     12318     12321     12324
     12321     12324     12327     12328     12321     12324     12327     12329
     12321     12324     12327     12330     12322     12321     12324     12325
     12322     12321     12324     12326     12322     12321     12324     12327
     12323     12321     12324     12325     12323     12321     12324     12326
     12323     12321     12324     12327     12324     12327     12330     12331
     12324     12327     12330     12332     12324     12327     12330     12333
     12325     12324     12327     12328     12325     12324     12327     12329
     12325     12324     12327     12330     12326     12324     12327     12328
     12326     12324     12327     12329     12326     12324     12327     12330
     12327     12330     12333     12334     12327     12330     12333     12335
     12327     12330     12333     12336     12328     12327     12330     12331
     12328     12327     12330     12332     12328     12327     12330     12333
     12329     12327     12330     12331     12329     12327     12330     12332
     12329     12327     12330     12333     12331     12330     12333     12334
     12331     12330     12333     12335     12331     12330     12333     12336
     12332     12330     12333     12334     12332     12330     12333     12335
     12332     12330     12333     12336     12337     12341     12344     12345
     12337     12341     12344     12346     12337     12341     12344     12351
     12338     12337     12341     12342     12338     12337     12341     12343
     12338     12337     12341     12344     12339     12337     12341     12342
     12339     12337     12341     12343     12339     12337     12341     12344
     12340     12337     12341     12342     12340     12337     12341     12343
     12340     12337     12341     12344     12341     12344     12351     12347
     12342     12341     12344     12345     12342     12341     12344     12346
     12342     12341     12344     12351     12343     12341     12344     12345
     12343     12341     12344     12346     12343     12341     12344     12351
     12344     12351     12347     12348     12344     12351     12347     12349
     12344     12351     12347     12350     12345     12344     12351     12347
     12346     12344     12351     12347     12347     12350     12352     12353
     12347     12350     12352     12354     12347     12350     12352     12355
     12348     12347     12350     12352     12349     12347     12350     12352
     12350     12352     12355     12356     12350     12352     12355     12357
     12350     12352     12355     12363     12351     12347     12350     12352
     12352     12355     12357     12358     12352     12355     12363     12364
     12352     12355     12363     12365     12352     12355     12363     12366
     12353     12352     12355     12356     12353     12352     12355     12357
     12353     12352     12355     12363     12354     12352     12355     12356
     12354     12352     12355     12357     12354     12352     12355     12363
     12355     12357     12358     12359     12355     12357     12358     12360
     12355     12363     12366     12367     12356     12355     12357     12358
     12356     12355     12363     12364     12356     12355     12363     12365
     12356     12355     12363     12366     12357     12355     12363     12364
     12357     12355     12363     12365     12357     12355     12363     12366
     12357     12358     12360     12361     12357     12358     12360     12362
     12357     12358     12360     12372     12358     12357     12355     12363
     12358     12360     12372     12373     12358     12360     12372     12374
     12358     12360     12372     12375     12359     12358     12360     12361
     12359     12358     12360     12362     12359     12358     12360     12372
     12360     12372     12375     12376     12360     12372     12375     12377
     12360     12372     12375     12378     12361     12360     12372     12373
     12361     12360     12372     12374     12361     12360     12372     12375
     12362     12360     12372     12373     12362     12360     12372     12374
     12362     12360     12372     12375     12363     12366     12367     12368
     12363     12366     12367     12369     12364     12363     12366     12367
     12365     12363     12366     12367     12366     12367     12369     12370
     12366     12367     12369     12371     12366     12367     12369     12416
     12367     12369     12416     12417     12367     12369     12416     12418
     12367     12369     12416     12419     12368     12367     12369     12370
     12368     12367     12369     12371     12368     12367     12369     12416
     12369     12416     12419     12420     12369     12416     12419     12421
     12369     12416     12419     12422     12370     12369     12416     12417
     12370     12369     12416     12418     12370     12369     12416     12419
     12371     12369     12416     12417     12371     12369     12416     12418
     12371     12369     12416     12419     12372     12375     12378     12379
     12372     12375     12378     12380     12372     12375     12378     12381
     12373     12372     12375     12376     12373     12372     12375     12377
     12373     12372     12375     12378     12374     12372     12375     12376
     12374     12372     12375     12377     12374     12372     12375     12378
     12375     12378     12381     12382     12375     12378     12381     12383
     12375     12378     12381     12384     12376     12375     12378     12379
     12376     12375     12378     12380     12376     12375     12378     12381
     12377     12375     12378     12379     12377     12375     12378     12380
     12377     12375     12378     12381     12378     12381     12384     12385
     12378     12381     12384     12386     12378     12381     12384     12387
     12379     12378     12381     12382     12379     12378     12381     12383
     12379     12378     12381     12384     12380     12378     12381     12382
     12380     12378     12381     12383     12380     12378     12381     12384
     12381     12384     12387     12388     12381     12384     12387     12389
     12381     12384     12387     12390     12382     12381     12384     12385
     12382     12381     12384     12386     12382     12381     12384     12387
     12383     12381     12384     12385     12383     12381     12384     12386
     12383     12381     12384     12387     12384     12387     12390     12391
     12384     12387     12390     12392     12384     12387     12390     12395
     12385     12384     12387     12388     12385     12384     12387     12389
     12385     12384     12387     12390     12386     12384     12387     12388
     12386     12384     12387     12389     12386     12384     12387     12390
     12387     12390     12392     12393     12387     12390     12392     12394
     12387     12390     12392     12395     12387     12390     12395     12392
     12387     12390     12395     12396     12387     12390     12395     12397
     12388     12387     12390     12391     12388     12387     12390     12392
     12388     12387     12390     12395     12389     12387     12390     12391
     12389     12387     12390     12392     12389     12387     12390     12395
     12390     12392     12395     12396     12390     12392     12395     12397
     12390     12395     12392     12393     12390     12395     12392     12394
     12390     12395     12397     12398     12390     12395     12397     12399
     12390     12395     12397     12400     12391     12390     12392     12393
     12391     12390     12392     12394     12391     12390     12392     12395
     12391     12390     12395     12392     12391     12390     12395     12396
     12391     12390     12395     12397     12392     12390     12395     12396
     12392     12390     12395     12397     12392     12395     12397     12398
     12392     12395     12397     12399     12392     12395     12397     12400
     12393     12392     12390     12395     12393     12392     12395     12396
     12393     12392     12395     12397     12394     12392     12390     12395
     12394     12392     12395     12396     12394     12392     12395     12397
     12395     12397     12400     12401     12395     12397     12400     12402
     12395     12397     12400     12403     12396     12395     12397     12398
     12396     12395     12397     12399     12396     12395     12397     12400
     12397     12400     12403     12404     12397     12400     12403     12405
     12397     12400     12403     12406     12398     12397     12400     12401
     12398     12397     12400     12402     12398     12397     12400     12403
     12399     12397     12400     12401     12399     12397     12400     12402
     12399     12397     12400     12403     12400     12403     12406     12407
     12400     12403     12406     12408     12400     12403     12406     12409
     12401     12400     12403     12404     12401     12400     12403     12405
     12401     12400     12403     12406     12402     12400     12403     12404
     12402     12400     12403     12405     12402     12400     12403     12406
     12403     12406     12409     12410     12403     12406     12409     12411
     12403     12406     12409     12412     12404     12403     12406     12407
     12404     12403     12406     12408     12404     12403     12406     12409
     12405     12403     12406     12407     12405     12403     12406     12408
     12405     12403     12406     12409     12406     12409     12412     12413
     12406     12409     12412     12414     12406     12409     12412     12415
     12407     12406     12409     12410     12407     12406     12409     12411
     12407     12406     12409     12412     12408     12406     12409     12410
     12408     12406     12409     12411     12408     12406     12409     12412
     12410     12409     12412     12413     12410     12409     12412     12414
     12410     12409     12412     12415     12411     12409     12412     12413
     12411     12409     12412     12414     12411     12409     12412     12415
     12416     12419     12422     12423     12416     12419     12422     12424
     12416     12419     12422     12425     12417     12416     12419     12420
     12417     12416     12419     12421     12417     12416     12419     12422
     12418     12416     12419     12420     12418     12416     12419     12421
     12418     12416     12419     12422     12419     12422     12425     12426
     12419     12422     12425     12427     12419     12422     12425     12428
     12420     12419     12422     12423     12420     12419     12422     12424
     12420     12419     12422     12425     12421     12419     12422     12423
     12421     12419     12422     12424     12421     12419     12422     12425
     12422     12425     12428     12429     12422     12425     12428     12430
     12422     12425     12428     12431     12423     12422     12425     12426
     12423     12422     12425     12427     12423     12422     12425     12428
     12424     12422     12425     12426     12424     12422     12425     12427
     12424     12422     12425     12428     12425     12428     12431     12432
     12425     12428     12431     12433     12425     12428     12431     12434
     12426     12425     12428     12429     12426     12425     12428     12430
     12426     12425     12428     12431     12427     12425     12428     12429
     12427     12425     12428     12430     12427     12425     12428     12431
     12428     12431     12434     12435     12428     12431     12434     12436
     12428     12431     12434     12437     12429     12428     12431     12432
     12429     12428     12431     12433     12429     12428     12431     12434
     12430     12428     12431     12432     12430     12428     12431     12433
     12430     12428     12431     12434     12431     12434     12437     12438
     12431     12434     12437     12439     12431     12434     12437     12440
     12432     12431     12434     12435     12432     12431     12434     12436
     12432     12431     12434     12437     12433     12431     12434     12435
     12433     12431     12434     12436     12433     12431     12434     12437
     12434     12437     12440     12441     12434     12437     12440     12442
     12434     12437     12440     12443     12435     12434     12437     12438
     12435     12434     12437     12439     12435     12434     12437     12440
     12436     12434     12437     12438     12436     12434     12437     12439
     12436     12434     12437     12440     12437     12440     12443     12444
     12437     12440     12443     12445     12437     12440     12443     12446
     12438     12437     12440     12441     12438     12437     12440     12442
     12438     12437     12440     12443     12439     12437     12440     12441
     12439     12437     12440     12442     12439     12437     12440     12443
     12440     12443     12446     12447     12440     12443     12446     12448
     12440     12443     12446     12449     12441     12440     12443     12444
     12441     12440     12443     12445     12441     12440     12443     12446
     12442     12440     12443     12444     12442     12440     12443     12445
     12442     12440     12443     12446     12443     12446     12449     12450
     12443     12446     12449     12451     12443     12446     12449     12452
     12444     12443     12446     12447     12444     12443     12446     12448
     12444     12443     12446     12449     12445     12443     12446     12447
     12445     12443     12446     12448     12445     12443     12446     12449
     12446     12449     12452     12453     12446     12449     12452     12454
     12446     12449     12452     12455     12447     12446     12449     12450
     12447     12446     12449     12451     12447     12446     12449     12452
     12448     12446     12449     12450     12448     12446     12449     12451
     12448     12446     12449     12452     12449     12452     12455     12456
     12449     12452     12455     12457     12449     12452     12455     12458
     12450     12449     12452     12453     12450     12449     12452     12454
     12450     12449     12452     12455     12451     12449     12452     12453
     12451     12449     12452     12454     12451     12449     12452     12455
     12453     12452     12455     12456     12453     12452     12455     12457
     12453     12452     12455     12458     12454     12452     12455     12456
     12454     12452     12455     12457     12454     12452     12455     12458
     12459     12463     12466     12467     12459     12463     12466     12468
     12459     12463     12466     12473     12460     12459     12463     12464
     12460     12459     12463     12465     12460     12459     12463     12466
     12461     12459     12463     12464     12461     12459     12463     12465
     12461     12459     12463     12466     12462     12459     12463     12464
     12462     12459     12463     12465     12462     12459     12463     12466
     12463     12466     12473     12469     12464     12463     12466     12467
     12464     12463     12466     12468     12464     12463     12466     12473
     12465     12463     12466     12467     12465     12463     12466     12468
     12465     12463     12466     12473     12466     12473     12469     12470
     12466     12473     12469     12471     12466     12473     12469     12472
     12467     12466     12473     12469     12468     12466     12473     12469
     12469     12472     12474     12475     12469     12472     12474     12476
     12469     12472     12474     12477     12470     12469     12472     12474
     12471     12469     12472     12474     12472     12474     12477     12478
     12472     12474     12477     12479     12472     12474     12477     12485
     12473     12469     12472     12474     12474     12477     12479     12480
     12474     12477     12485     12486     12474     12477     12485     12487
     12474     12477     12485     12488     12475     12474     12477     12478
     12475     12474     12477     12479     12475     12474     12477     12485
     12476     12474     12477     12478     12476     12474     12477     12479
     12476     12474     12477     12485     12477     12479     12480     12481
     12477     12479     12480     12482     12477     12485     12488     12489
     12478     12477     12479     12480     12478     12477     12485     12486
     12478     12477     12485     12487     12478     12477     12485     12488
     12479     12477     12485     12486     12479     12477     12485     12487
     12479     12477     12485     12488     12479     12480     12482     12483
     12479     12480     12482     12484     12479     12480     12482     12494
     12480     12479     12477     12485     12480     12482     12494     12495
     12480     12482     12494     12496     12480     12482     12494     12497
     12481     12480     12482     12483     12481     12480     12482     12484
     12481     12480     12482     12494     12482     12494     12497     12498
     12482     12494     12497     12499     12482     12494     12497     12500
     12483     12482     12494     12495     12483     12482     12494     12496
     12483     12482     12494     12497     12484     12482     12494     12495
     12484     12482     12494     12496     12484     12482     12494     12497
     12485     12488     12489     12490     12485     12488     12489     12491
     12486     12485     12488     12489     12487     12485     12488     12489
     12488     12489     12491     12492     12488     12489     12491     12493
     12488     12489     12491     12538     12489     12491     12538     12539
     12489     12491     12538     12540     12489     12491     12538     12541
     12490     12489     12491     12492     12490     12489     12491     12493
     12490     12489     12491     12538     12491     12538     12541     12542
     12491     12538     12541     12543     12491     12538     12541     12544
     12492     12491     12538     12539     12492     12491     12538     12540
     12492     12491     12538     12541     12493     12491     12538     12539
     12493     12491     12538     12540     12493     12491     12538     12541
     12494     12497     12500     12501     12494     12497     12500     12502
     12494     12497     12500     12503     12495     12494     12497     12498
     12495     12494     12497     12499     12495     12494     12497     12500
     12496     12494     12497     12498     12496     12494     12497     12499
     12496     12494     12497     12500     12497     12500     12503     12504
     12497     12500     12503     12505     12497     12500     12503     12506
     12498     12497     12500     12501     12498     12497     12500     12502
     12498     12497     12500     12503     12499     12497     12500     12501
     12499     12497     12500     12502     12499     12497     12500     12503
     12500     12503     12506     12507     12500     12503     12506     12508
     12500     12503     12506     12509     12501     12500     12503     12504
     12501     12500     12503     12505     12501     12500     12503     12506
     12502     12500     12503     12504     12502     12500     12503     12505
     12502     12500     12503     12506     12503     12506     12509     12510
     12503     12506     12509     12511     12503     12506     12509     12512
     12504     12503     12506     12507     12504     12503     12506     12508
     12504     12503     12506     12509     12505     12503     12506     12507
     12505     12503     12506     12508     12505     12503     12506     12509
     12506     12509     12512     12513     12506     12509     12512     12514
     12506     12509     12512     12517     12507     12506     12509     12510
     12507     12506     12509     12511     12507     12506     12509     12512
     12508     12506     12509     12510     12508     12506     12509     12511
     12508     12506     12509     12512     12509     12512     12514     12515
     12509     12512     12514     12516     12509     12512     12514     12517
     12509     12512     12517     12514     12509     12512     12517     12518
     12509     12512     12517     12519     12510     12509     12512     12513
     12510     12509     12512     12514     12510     12509     12512     12517
     12511     12509     12512     12513     12511     12509     12512     12514
     12511     12509     12512     12517     12512     12514     12517     12518
     12512     12514     12517     12519     12512     12517     12514     12515
     12512     12517     12514     12516     12512     12517     12519     12520
     12512     12517     12519     12521     12512     12517     12519     12522
     12513     12512     12514     12515     12513     12512     12514     12516
     12513     12512     12514     12517     12513     12512     12517     12514
     12513     12512     12517     12518     12513     12512     12517     12519
     12514     12512     12517     12518     12514     12512     12517     12519
     12514     12517     12519     12520     12514     12517     12519     12521
     12514     12517     12519     12522     12515     12514     12512     12517
     12515     12514     12517     12518     12515     12514     12517     12519
     12516     12514     12512     12517     12516     12514     12517     12518
     12516     12514     12517     12519     12517     12519     12522     12523
     12517     12519     12522     12524     12517     12519     12522     12525
     12518     12517     12519     12520     12518     12517     12519     12521
     12518     12517     12519     12522     12519     12522     12525     12526
     12519     12522     12525     12527     12519     12522     12525     12528
     12520     12519     12522     12523     12520     12519     12522     12524
     12520     12519     12522     12525     12521     12519     12522     12523
     12521     12519     12522     12524     12521     12519     12522     12525
     12522     12525     12528     12529     12522     12525     12528     12530
     12522     12525     12528     12531     12523     12522     12525     12526
     12523     12522     12525     12527     12523     12522     12525     12528
     12524     12522     12525     12526     12524     12522     12525     12527
     12524     12522     12525     12528     12525     12528     12531     12532
     12525     12528     12531     12533     12525     12528     12531     12534
     12526     12525     12528     12529     12526     12525     12528     12530
     12526     12525     12528     12531     12527     12525     12528     12529
     12527     12525     12528     12530     12527     12525     12528     12531
     12528     12531     12534     12535     12528     12531     12534     12536
     12528     12531     12534     12537     12529     12528     12531     12532
     12529     12528     12531     12533     12529     12528     12531     12534
     12530     12528     12531     12532     12530     12528     12531     12533
     12530     12528     12531     12534     12532     12531     12534     12535
     12532     12531     12534     12536     12532     12531     12534     12537
     12533     12531     12534     12535     12533     12531     12534     12536
     12533     12531     12534     12537     12538     12541     12544     12545
     12538     12541     12544     12546     12538     12541     12544     12547
     12539     12538     12541     12542     12539     12538     12541     12543
     12539     12538     12541     12544     12540     12538     12541     12542
     12540     12538     12541     12543     12540     12538     12541     12544
     12541     12544     12547     12548     12541     12544     12547     12549
     12541     12544     12547     12550     12542     12541     12544     12545
     12542     12541     12544     12546     12542     12541     12544     12547
     12543     12541     12544     12545     12543     12541     12544     12546
     12543     12541     12544     12547     12544     12547     12550     12551
     12544     12547     12550     12552     12544     12547     12550     12553
     12545     12544     12547     12548     12545     12544     12547     12549
     12545     12544     12547     12550     12546     12544     12547     12548
     12546     12544     12547     12549     12546     12544     12547     12550
     12547     12550     12553     12554     12547     12550     12553     12555
     12547     12550     12553     12556     12548     12547     12550     12551
     12548     12547     12550     12552     12548     12547     12550     12553
     12549     12547     12550     12551     12549     12547     12550     12552
     12549     12547     12550     12553     12550     12553     12556     12557
     12550     12553     12556     12558     12550     12553     12556     12559
     12551     12550     12553     12554     12551     12550     12553     12555
     12551     12550     12553     12556     12552     12550     12553     12554
     12552     12550     12553     12555     12552     12550     12553     12556
     12553     12556     12559     12560     12553     12556     12559     12561
     12553     12556     12559     12562     12554     12553     12556     12557
     12554     12553     12556     12558     12554     12553     12556     12559
     12555     12553     12556     12557     12555     12553     12556     12558
     12555     12553     12556     12559     12556     12559     12562     12563
     12556     12559     12562     12564     12556     12559     12562     12565
     12557     12556     12559     12560     12557     12556     12559     12561
     12557     12556     12559     12562     12558     12556     12559     12560
     12558     12556     12559     12561     12558     12556     12559     12562
     12559     12562     12565     12566     12559     12562     12565     12567
     12559     12562     12565     12568     12560     12559     12562     12563
     12560     12559     12562     12564     12560     12559     12562     12565
     12561     12559     12562     12563     12561     12559     12562     12564
     12561     12559     12562     12565     12562     12565     12568     12569
     12562     12565     12568     12570     12562     12565     12568     12571
     12563     12562     12565     12566     12563     12562     12565     12567
     12563     12562     12565     12568     12564     12562     12565     12566
     12564     12562     12565     12567     12564     12562     12565     12568
     12565     12568     12571     12572     12565     12568     12571     12573
     12565     12568     12571     12574     12566     12565     12568     12569
     12566     12565     12568     12570     12566     12565     12568     12571
     12567     12565     12568     12569     12567     12565     12568     12570
     12567     12565     12568     12571     12568     12571     12574     12575
     12568     12571     12574     12576     12568     12571     12574     12577
     12569     12568     12571     12572     12569     12568     12571     12573
     12569     12568     12571     12574     12570     12568     12571     12572
     12570     12568     12571     12573     12570     12568     12571     12574
     12571     12574     12577     12578     12571     12574     12577     12579
     12571     12574     12577     12580     12572     12571     12574     12575
     12572     12571     12574     12576     12572     12571     12574     12577
     12573     12571     12574     12575     12573     12571     12574     12576
     12573     12571     12574     12577     12575     12574     12577     12578
     12575     12574     12577     12579     12575     12574     12577     12580
     12576     12574     12577     12578     12576     12574     12577     12579
     12576     12574     12577     12580     12581     12585     12588     12589
     12581     12585     12588     12590     12581     12585     12588     12595
     12582     12581     12585     12586     12582     12581     12585     12587
     12582     12581     12585     12588     12583     12581     12585     12586
     12583     12581     12585     12587     12583     12581     12585     12588
     12584     12581     12585     12586     12584     12581     12585     12587
     12584     12581     12585     12588     12585     12588     12595     12591
     12586     12585     12588     12589     12586     12585     12588     12590
     12586     12585     12588     12595     12587     12585     12588     12589
     12587     12585     12588     12590     12587     12585     12588     12595
     12588     12595     12591     12592     12588     12595     12591     12593
     12588     12595     12591     12594     12589     12588     12595     12591
     12590     12588     12595     12591     12591     12594     12596     12597
     12591     12594     12596     12598     12591     12594     12596     12599
     12592     12591     12594     12596     12593     12591     12594     12596
     12594     12596     12599     12600     12594     12596     12599     12601
     12594     12596     12599     12607     12595     12591     12594     12596
     12596     12599     12601     12602     12596     12599     12607     12608
     12596     12599     12607     12609     12596     12599     12607     12610
     12597     12596     12599     12600     12597     12596     12599     12601
     12597     12596     12599     12607     12598     12596     12599     12600
     12598     12596     12599     12601     12598     12596     12599     12607
     12599     12601     12602     12603     12599     12601     12602     12604
     12599     12607     12610     12611     12600     12599     12601     12602
     12600     12599     12607     12608     12600     12599     12607     12609
     12600     12599     12607     12610     12601     12599     12607     12608
     12601     12599     12607     12609     12601     12599     12607     12610
     12601     12602     12604     12605     12601     12602     12604     12606
     12601     12602     12604     12616     12602     12601     12599     12607
     12602     12604     12616     12617     12602     12604     12616     12618
     12602     12604     12616     12619     12603     12602     12604     12605
     12603     12602     12604     12606     12603     12602     12604     12616
     12604     12616     12619     12620     12604     12616     12619     12621
     12604     12616     12619     12622     12605     12604     12616     12617
     12605     12604     12616     12618     12605     12604     12616     12619
     12606     12604     12616     12617     12606     12604     12616     12618
     12606     12604     12616     12619     12607     12610     12611     12612
     12607     12610     12611     12613     12608     12607     12610     12611
     12609     12607     12610     12611     12610     12611     12613     12614
     12610     12611     12613     12615     12610     12611     12613     12660
     12611     12613     12660     12661     12611     12613     12660     12662
     12611     12613     12660     12663     12612     12611     12613     12614
     12612     12611     12613     12615     12612     12611     12613     12660
     12613     12660     12663     12664     12613     12660     12663     12665
     12613     12660     12663     12666     12614     12613     12660     12661
     12614     12613     12660     12662     12614     12613     12660     12663
     12615     12613     12660     12661     12615     12613     12660     12662
     12615     12613     12660     12663     12616     12619     12622     12623
     12616     12619     12622     12624     12616     12619     12622     12625
     12617     12616     12619     12620     12617     12616     12619     12621
     12617     12616     12619     12622     12618     12616     12619     12620
     12618     12616     12619     12621     12618     12616     12619     12622
     12619     12622     12625     12626     12619     12622     12625     12627
     12619     12622     12625     12628     12620     12619     12622     12623
     12620     12619     12622     12624     12620     12619     12622     12625
     12621     12619     12622     12623     12621     12619     12622     12624
     12621     12619     12622     12625     12622     12625     12628     12629
     12622     12625     12628     12630     12622     12625     12628     12631
     12623     12622     12625     12626     12623     12622     12625     12627
     12623     12622     12625     12628     12624     12622     12625     12626
     12624     12622     12625     12627     12624     12622     12625     12628
     12625     12628     12631     12632     12625     12628     12631     12633
     12625     12628     12631     12634     12626     12625     12628     12629
     12626     12625     12628     12630     12626     12625     12628     12631
     12627     12625     12628     12629     12627     12625     12628     12630
     12627     12625     12628     12631     12628     12631     12634     12635
     12628     12631     12634     12636     12628     12631     12634     12639
     12629     12628     12631     12632     12629     12628     12631     12633
     12629     12628     12631     12634     12630     12628     12631     12632
     12630     12628     12631     12633     12630     12628     12631     12634
     12631     12634     12636     12637     12631     12634     12636     12638
     12631     12634     12636     12639     12631     12634     12639     12636
     12631     12634     12639     12640     12631     12634     12639     12641
     12632     12631     12634     12635     12632     12631     12634     12636
     12632     12631     12634     12639     12633     12631     12634     12635
     12633     12631     12634     12636     12633     12631     12634     12639
     12634     12636     12639     12640     12634     12636     12639     12641
     12634     12639     12636     12637     12634     12639     12636     12638
     12634     12639     12641     12642     12634     12639     12641     12643
     12634     12639     12641     12644     12635     12634     12636     12637
     12635     12634     12636     12638     12635     12634     12636     12639
     12635     12634     12639     12636     12635     12634     12639     12640
     12635     12634     12639     12641     12636     12634     12639     12640
     12636     12634     12639     12641     12636     12639     12641     12642
     12636     12639     12641     12643     12636     12639     12641     12644
     12637     12636     12634     12639     12637     12636     12639     12640
     12637     12636     12639     12641     12638     12636     12634     12639
     12638     12636     12639     12640     12638     12636     12639     12641
     12639     12641     12644     12645     12639     12641     12644     12646
     12639     12641     12644     12647     12640     12639     12641     12642
     12640     12639     12641     12643     12640     12639     12641     12644
     12641     12644     12647     12648     12641     12644     12647     12649
     12641     12644     12647     12650     12642     12641     12644     12645
     12642     12641     12644     12646     12642     12641     12644     12647
     12643     12641     12644     12645     12643     12641     12644     12646
     12643     12641     12644     12647     12644     12647     12650     12651
     12644     12647     12650     12652     12644     12647     12650     12653
     12645     12644     12647     12648     12645     12644     12647     12649
     12645     12644     12647     12650     12646     12644     12647     12648
     12646     12644     12647     12649     12646     12644     12647     12650
     12647     12650     12653     12654     12647     12650     12653     12655
     12647     12650     12653     12656     12648     12647     12650     12651
     12648     12647     12650     12652     12648     12647     12650     12653
     12649     12647     12650     12651     12649     12647     12650     12652
     12649     12647     12650     12653     12650     12653     12656     12657
     12650     12653     12656     12658     12650     12653     12656     12659
     12651     12650     12653     12654     12651     12650     12653     12655
     12651     12650     12653     12656     12652     12650     12653     12654
     12652     12650     12653     12655     12652     12650     12653     12656
     12654     12653     12656     12657     12654     12653     12656     12658
     12654     12653     12656     12659     12655     12653     12656     12657
     12655     12653     12656     12658     12655     12653     12656     12659
     12660     12663     12666     12667     12660     12663     12666     12668
     12660     12663     12666     12669     12661     12660     12663     12664
     12661     12660     12663     12665     12661     12660     12663     12666
     12662     12660     12663     12664     12662     12660     12663     12665
     12662     12660     12663     12666     12663     12666     12669     12670
     12663     12666     12669     12671     12663     12666     12669     12672
     12664     12663     12666     12667     12664     12663     12666     12668
     12664     12663     12666     12669     12665     12663     12666     12667
     12665     12663     12666     12668     12665     12663     12666     12669
     12666     12669     12672     12673     12666     12669     12672     12674
     12666     12669     12672     12675     12667     12666     12669     12670
     12667     12666     12669     12671     12667     12666     12669     12672
     12668     12666     12669     12670     12668     12666     12669     12671
     12668     12666     12669     12672     12669     12672     12675     12676
     12669     12672     12675     12677     12669     12672     12675     12678
     12670     12669     12672     12673     12670     12669     12672     12674
     12670     12669     12672     12675     12671     12669     12672     12673
     12671     12669     12672     12674     12671     12669     12672     12675
     12672     12675     12678     12679     12672     12675     12678     12680
     12672     12675     12678     12681     12673     12672     12675     12676
     12673     12672     12675     12677     12673     12672     12675     12678
     12674     12672     12675     12676     12674     12672     12675     12677
     12674     12672     12675     12678     12675     12678     12681     12682
     12675     12678     12681     12683     12675     12678     12681     12684
     12676     12675     12678     12679     12676     12675     12678     12680
     12676     12675     12678     12681     12677     12675     12678     12679
     12677     12675     12678     12680     12677     12675     12678     12681
     12678     12681     12684     12685     12678     12681     12684     12686
     12678     12681     12684     12687     12679     12678     12681     12682
     12679     12678     12681     12683     12679     12678     12681     12684
     12680     12678     12681     12682     12680     12678     12681     12683
     12680     12678     12681     12684     12681     12684     12687     12688
     12681     12684     12687     12689     12681     12684     12687     12690
     12682     12681     12684     12685     12682     12681     12684     12686
     12682     12681     12684     12687     12683     12681     12684     12685
     12683     12681     12684     12686     12683     12681     12684     12687
     12684     12687     12690     12691     12684     12687     12690     12692
     12684     12687     12690     12693     12685     12684     12687     12688
     12685     12684     12687     12689     12685     12684     12687     12690
     12686     12684     12687     12688     12686     12684     12687     12689
     12686     12684     12687     12690     12687     12690     12693     12694
     12687     12690     12693     12695     12687     12690     12693     12696
     12688     12687     12690     12691     12688     12687     12690     12692
     12688     12687     12690     12693     12689     12687     12690     12691
     12689     12687     12690     12692     12689     12687     12690     12693
     12690     12693     12696     12697     12690     12693     12696     12698
     12690     12693     12696     12699     12691     12690     12693     12694
     12691     12690     12693     12695     12691     12690     12693     12696
     12692     12690     12693     12694     12692     12690     12693     12695
     12692     12690     12693     12696     12694     12693     12696     12697
     12694     12693     12696     12698     12694     12693     12696     12699
     12695     12693     12696     12697     12695     12693     12696     12698
     12695     12693     12696     12699     12700     12704     12707     12708
     12700     12704     12707     12709     12700     12704     12707     12714
     12701     12700     12704     12705     12701     12700     12704     12706
     12701     12700     12704     12707     12702     12700     12704     12705
     12702     12700     12704     12706     12702     12700     12704     12707
     12703     12700     12704     12705     12703     12700     12704     12706
     12703     12700     12704     12707     12704     12707     12714     12710
     12705     12704     12707     12708     12705     12704     12707     12709
     12705     12704     12707     12714     12706     12704     12707     12708
     12706     12704     12707     12709     12706     12704     12707     12714
     12707     12714     12710     12711     12707     12714     12710     12712
     12707     12714     12710     12713     12708     12707     12714     12710
     12709     12707     12714     12710     12710     12713     12715     12716
     12710     12713     12715     12717     12710     12713     12715     12718
     12711     12710     12713     12715     12712     12710     12713     12715
     12713     12715     12718     12719     12713     12715     12718     12720
     12713     12715     12718     12726     12714     12710     12713     12715
     12715     12718     12720     12721     12715     12718     12726     12727
     12715     12718     12726     12728     12715     12718     12726     12729
     12716     12715     12718     12719     12716     12715     12718     12720
     12716     12715     12718     12726     12717     12715     12718     12719
     12717     12715     12718     12720     12717     12715     12718     12726
     12718     12720     12721     12722     12718     12720     12721     12723
     12718     12726     12729     12730     12719     12718     12720     12721
     12719     12718     12726     12727     12719     12718     12726     12728
     12719     12718     12726     12729     12720     12718     12726     12727
     12720     12718     12726     12728     12720     12718     12726     12729
     12720     12721     12723     12724     12720     12721     12723     12725
     12720     12721     12723     12735     12721     12720     12718     12726
     12721     12723     12735     12736     12721     12723     12735     12737
     12721     12723     12735     12738     12722     12721     12723     12724
     12722     12721     12723     12725     12722     12721     12723     12735
     12723     12735     12738     12739     12723     12735     12738     12740
     12723     12735     12738     12741     12724     12723     12735     12736
     12724     12723     12735     12737     12724     12723     12735     12738
     12725     12723     12735     12736     12725     12723     12735     12737
     12725     12723     12735     12738     12726     12729     12730     12731
     12726     12729     12730     12732     12727     12726     12729     12730
     12728     12726     12729     12730     12729     12730     12732     12733
     12729     12730     12732     12734     12729     12730     12732     12782
     12730     12732     12782     12783     12730     12732     12782     12784
     12730     12732     12782     12785     12731     12730     12732     12733
     12731     12730     12732     12734     12731     12730     12732     12782
     12732     12782     12785     12786     12732     12782     12785     12787
     12732     12782     12785     12788     12733     12732     12782     12783
     12733     12732     12782     12784     12733     12732     12782     12785
     12734     12732     12782     12783     12734     12732     12782     12784
     12734     12732     12782     12785     12735     12738     12741     12742
     12735     12738     12741     12743     12735     12738     12741     12744
     12736     12735     12738     12739     12736     12735     12738     12740
     12736     12735     12738     12741     12737     12735     12738     12739
     12737     12735     12738     12740     12737     12735     12738     12741
     12738     12741     12744     12745     12738     12741     12744     12746
     12738     12741     12744     12747     12739     12738     12741     12742
     12739     12738     12741     12743     12739     12738     12741     12744
     12740     12738     12741     12742     12740     12738     12741     12743
     12740     12738     12741     12744     12741     12744     12747     12748
     12741     12744     12747     12749     12741     12744     12747     12750
     12742     12741     12744     12745     12742     12741     12744     12746
     12742     12741     12744     12747     12743     12741     12744     12745
     12743     12741     12744     12746     12743     12741     12744     12747
     12744     12747     12750     12751     12744     12747     12750     12752
     12744     12747     12750     12753     12745     12744     12747     12748
     12745     12744     12747     12749     12745     12744     12747     12750
     12746     12744     12747     12748     12746     12744     12747     12749
     12746     12744     12747     12750     12747     12750     12753     12754
     12747     12750     12753     12755     12748     12747     12750     12751
     12748     12747     12750     12752     12748     12747     12750     12753
     12749     12747     12750     12751     12749     12747     12750     12752
     12749     12747     12750     12753     12750     12753     12755     12756
     12750     12753     12755     12757     12751     12750     12753     12754
     12751     12750     12753     12755     12752     12750     12753     12754
     12752     12750     12753     12755     12753     12755     12757     12758
     12753     12755     12757     12759     12753     12755     12757     12760
     12754     12753     12755     12756     12754     12753     12755     12757
     12755     12757     12760     12761     12755     12757     12760     12762
     12755     12757     12760     12763     12756     12755     12757     12758
     12756     12755     12757     12759     12756     12755     12757     12760
     12757     12760     12763     12764     12757     12760     12763     12765
     12757     12760     12763     12766     12758     12757     12760     12761
     12758     12757     12760     12762     12758     12757     12760     12763
     12759     12757     12760     12761     12759     12757     12760     12762
     12759     12757     12760     12763     12760     12763     12766     12767
     12760     12763     12766     12768     12760     12763     12766     12769
     12761     12760     12763     12764     12761     12760     12763     12765
     12761     12760     12763     12766     12762     12760     12763     12764
     12762     12760     12763     12765     12762     12760     12763     12766
     12763     12766     12769     12770     12763     12766     12769     12771
     12763     12766     12769     12772     12764     12763     12766     12767
     12764     12763     12766     12768     12764     12763     12766     12769
     12765     12763     12766     12767     12765     12763     12766     12768
     12765     12763     12766     12769     12766     12769     12772     12773
     12766     12769     12772     12774     12766     12769     12772     12775
     12767     12766     12769     12770     12767     12766     12769     12771
     12767     12766     12769     12772     12768     12766     12769     12770
     12768     12766     12769     12771     12768     12766     12769     12772
     12769     12772     12775     12776     12769     12772     12775     12777
     12769     12772     12775     12778     12770     12769     12772     12773
     12770     12769     12772     12774     12770     12769     12772     12775
     12771     12769     12772     12773     12771     12769     12772     12774
     12771     12769     12772     12775     12772     12775     12778     12779
     12772     12775     12778     12780     12772     12775     12778     12781
     12773     12772     12775     12776     12773     12772     12775     12777
     12773     12772     12775     12778     12774     12772     12775     12776
     12774     12772     12775     12777     12774     12772     12775     12778
     12776     12775     12778     12779     12776     12775     12778     12780
     12776     12775     12778     12781     12777     12775     12778     12779
     12777     12775     12778     12780     12777     12775     12778     12781
     12782     12785     12788     12789     12782     12785     12788     12790
     12782     12785     12788     12791     12783     12782     12785     12786
     12783     12782     12785     12787     12783     12782     12785     12788
     12784     12782     12785     12786     12784     12782     12785     12787
     12784     12782     12785     12788     12785     12788     12791     12792
     12785     12788     12791     12793     12785     12788     12791     12794
     12786     12785     12788     12789     12786     12785     12788     12790
     12786     12785     12788     12791     12787     12785     12788     12789
     12787     12785     12788     12790     12787     12785     12788     12791
     12788     12791     12794     12795     12788     12791     12794     12796
     12788     12791     12794     12797     12789     12788     12791     12792
     12789     12788     12791     12793     12789     12788     12791     12794
     12790     12788     12791     12792     12790     12788     12791     12793
     12790     12788     12791     12794     12791     12794     12797     12798
     12791     12794     12797     12799     12791     12794     12797     12800
     12792     12791     12794     12795     12792     12791     12794     12796
     12792     12791     12794     12797     12793     12791     12794     12795
     12793     12791     12794     12796     12793     12791     12794     12797
     12794     12797     12800     12801     12794     12797     12800     12802
     12794     12797     12800     12803     12795     12794     12797     12798
     12795     12794     12797     12799     12795     12794     12797     12800
     12796     12794     12797     12798     12796     12794     12797     12799
     12796     12794     12797     12800     12797     12800     12803     12804
     12797     12800     12803     12805     12797     12800     12803     12806
     12798     12797     12800     12801     12798     12797     12800     12802
     12798     12797     12800     12803     12799     12797     12800     12801
     12799     12797     12800     12802     12799     12797     12800     12803
     12800     12803     12806     12807     12800     12803     12806     12808
     12800     12803     12806     12809     12801     12800     12803     12804
     12801     12800     12803     12805     12801     12800     12803     12806
     12802     12800     12803     12804     12802     12800     12803     12805
     12802     12800     12803     12806     12803     12806     12809     12810
     12803     12806     12809     12811     12803     12806     12809     12812
     12804     12803     12806     12807     12804     12803     12806     12808
     12804     12803     12806     12809     12805     12803     12806     12807
     12805     12803     12806     12808     12805     12803     12806     12809
     12806     12809     12812     12813     12806     12809     12812     12814
     12806     12809     12812     12815     12807     12806     12809     12810
     12807     12806     12809     12811     12807     12806     12809     12812
     12808     12806     12809     12810     12808     12806     12809     12811
     12808     12806     12809     12812     12809     12812     12815     12816
     12809     12812     12815     12817     12809     12812     12815     12818
     12810     12809     12812     12813     12810     12809     12812     12814
     12810     12809     12812     12815     12811     12809     12812     12813
     12811     12809     12812     12814     12811     12809     12812     12815
     12812     12815     12818     12819     12812     12815     12818     12820
     12812     12815     12818     12821     12813     12812     12815     12816
     12813     12812     12815     12817     12813     12812     12815     12818
     12814     12812     12815     12816     12814     12812     12815     12817
     12814     12812     12815     12818     12815     12818     12821     12822
     12815     12818     12821     12823     12815     12818     12821     12824
     12816     12815     12818     12819     12816     12815     12818     12820
     12816     12815     12818     12821     12817     12815     12818     12819
     12817     12815     12818     12820     12817     12815     12818     12821
     12819     12818     12821     12822     12819     12818     12821     12823
     12819     12818     12821     12824     12820     12818     12821     12822
     12820     12818     12821     12823     12820     12818     12821     12824
     12825     12829     12832     12833     12825     12829     12832     12834
     12825     12829     12832     12839     12826     12825     12829     12830
     12826     12825     12829     12831     12826     12825     12829     12832
     12827     12825     12829     12830     12827     12825     12829     12831
     12827     12825     12829     12832     12828     12825     12829     12830
     12828     12825     12829     12831     12828     12825     12829     12832
     12829     12832     12839     12835     12830     12829     12832     12833
     12830     12829     12832     12834     12830     12829     12832     12839
     12831     12829     12832     12833     12831     12829     12832     12834
     12831     12829     12832     12839     12832     12839     12835     12836
     12832     12839     12835     12837     12832     12839     12835     12838
     12833     12832     12839     12835     12834     12832     12839     12835
     12835     12838     12840     12841     12835     12838     12840     12842
     12835     12838     12840     12843     12836     12835     12838     12840
     12837     12835     12838     12840     12838     12840     12843     12844
     12838     12840     12843     12845     12838     12840     12843     12851
     12839     12835     12838     12840     12840     12843     12845     12846
     12840     12843     12851     12852     12840     12843     12851     12853
     12840     12843     12851     12854     12841     12840     12843     12844
     12841     12840     12843     12845     12841     12840     12843     12851
     12842     12840     12843     12844     12842     12840     12843     12845
     12842     12840     12843     12851     12843     12845     12846     12847
     12843     12845     12846     12848     12843     12851     12854     12855
     12844     12843     12845     12846     12844     12843     12851     12852
     12844     12843     12851     12853     12844     12843     12851     12854
     12845     12843     12851     12852     12845     12843     12851     12853
     12845     12843     12851     12854     12845     12846     12848     12849
     12845     12846     12848     12850     12845     12846     12848     12860
     12846     12845     12843     12851     12846     12848     12860     12861
     12846     12848     12860     12862     12846     12848     12860     12863
     12847     12846     12848     12849     12847     12846     12848     12850
     12847     12846     12848     12860     12848     12860     12863     12864
     12848     12860     12863     12865     12848     12860     12863     12866
     12849     12848     12860     12861     12849     12848     12860     12862
     12849     12848     12860     12863     12850     12848     12860     12861
     12850     12848     12860     12862     12850     12848     12860     12863
     12851     12854     12855     12856     12851     12854     12855     12857
     12852     12851     12854     12855     12853     12851     12854     12855
     12854     12855     12857     12858     12854     12855     12857     12859
     12854     12855     12857     12901     12855     12857     12901     12902
     12855     12857     12901     12903     12855     12857     12901     12904
     12856     12855     12857     12858     12856     12855     12857     12859
     12856     12855     12857     12901     12857     12901     12904     12905
     12857     12901     12904     12906     12857     12901     12904     12907
     12858     12857     12901     12902     12858     12857     12901     12903
     12858     12857     12901     12904     12859     12857     12901     12902
     12859     12857     12901     12903     12859     12857     12901     12904
     12860     12863     12866     12867     12860     12863     12866     12868
     12860     12863     12866     12869     12861     12860     12863     12864
     12861     12860     12863     12865     12861     12860     12863     12866
     12862     12860     12863     12864     12862     12860     12863     12865
     12862     12860     12863     12866     12863     12866     12869     12870
     12863     12866     12869     12871     12863     12866     12869     12872
     12864     12863     12866     12867     12864     12863     12866     12868
     12864     12863     12866     12869     12865     12863     12866     12867
     12865     12863     12866     12868     12865     12863     12866     12869
     12866     12869     12872     12873     12866     12869     12872     12874
     12866     12869     12872     12875     12867     12866     12869     12870
     12867     12866     12869     12871     12867     12866     12869     12872
     12868     12866     12869     12870     12868     12866     12869     12871
     12868     12866     12869     12872     12869     12872     12875     12876
     12869     12872     12875     12877     12869     12872     12875     12878
     12870     12869     12872     12873     12870     12869     12872     12874
     12870     12869     12872     12875     12871     12869     12872     12873
     12871     12869     12872     12874     12871     12869     12872     12875
     12872     12875     12878     12879     12872     12875     12878     12880
     12873     12872     12875     12876     12873     12872     12875     12877
     12873     12872     12875     12878     12874     12872     12875     12876
     12874     12872     12875     12877     12874     12872     12875     12878
     12875     12878     12880     12881     12875     12878     12880     12882
     12876     12875     12878     12879     12876     12875     12878     12880
     12877     12875     12878     12879     12877     12875     12878     12880
     12878     12880     12882     12883     12878     12880     12882     12884
     12878     12880     12882     12885     12879     12878     12880     12881
     12879     12878     12880     12882     12880     12882     12885     12886
     12880     12882     12885     12887     12880     12882     12885     12888
     12881     12880     12882     12883     12881     12880     12882     12884
     12881     12880     12882     12885     12882     12885     12888     12889
     12882     12885     12888     12890     12882     12885     12888     12891
     12883     12882     12885     12886     12883     12882     12885     12887
     12883     12882     12885     12888     12884     12882     12885     12886
     12884     12882     12885     12887     12884     12882     12885     12888
     12885     12888     12891     12892     12885     12888     12891     12893
     12885     12888     12891     12894     12886     12885     12888     12889
     12886     12885     12888     12890     12886     12885     12888     12891
     12887     12885     12888     12889     12887     12885     12888     12890
     12887     12885     12888     12891     12888     12891     12894     12895
     12888     12891     12894     12896     12888     12891     12894     12897
     12889     12888     12891     12892     12889     12888     12891     12893
     12889     12888     12891     12894     12890     12888     12891     12892
     12890     12888     12891     12893     12890     12888     12891     12894
     12891     12894     12897     12898     12891     12894     12897     12899
     12891     12894     12897     12900     12892     12891     12894     12895
     12892     12891     12894     12896     12892     12891     12894     12897
     12893     12891     12894     12895     12893     12891     12894     12896
     12893     12891     12894     12897     12895     12894     12897     12898
     12895     12894     12897     12899     12895     12894     12897     12900
     12896     12894     12897     12898     12896     12894     12897     12899
     12896     12894     12897     12900     12901     12904     12907     12908
     12901     12904     12907     12909     12901     12904     12907     12910
     12902     12901     12904     12905     12902     12901     12904     12906
     12902     12901     12904     12907     12903     12901     12904     12905
     12903     12901     12904     12906     12903     12901     12904     12907
     12904     12907     12910     12911     12904     12907     12910     12912
     12904     12907     12910     12913     12905     12904     12907     12908
     12905     12904     12907     12909     12905     12904     12907     12910
     12906     12904     12907     12908     12906     12904     12907     12909
     12906     12904     12907     12910     12907     12910     12913     12914
     12907     12910     12913     12915     12907     12910     12913     12916
     12908     12907     12910     12911     12908     12907     12910     12912
     12908     12907     12910     12913     12909     12907     12910     12911
     12909     12907     12910     12912     12909     12907     12910     12913
     12910     12913     12916     12917     12910     12913     12916     12918
     12910     12913     12916     12919     12911     12910     12913     12914
     12911     12910     12913     12915     12911     12910     12913     12916
     12912     12910     12913     12914     12912     12910     12913     12915
     12912     12910     12913     12916     12913     12916     12919     12920
     12913     12916     12919     12921     12914     12913     12916     12917
     12914     12913     12916     12918     12914     12913     12916     12919
     12915     12913     12916     12917     12915     12913     12916     12918
     12915     12913     12916     12919     12916     12919     12921     12922
     12916     12919     12921     12923     12917     12916     12919     12920
     12917     12916     12919     12921     12918     12916     12919     12920
     12918     12916     12919     12921     12919     12921     12923     12924
     12919     12921     12923     12925     12919     12921     12923     12926
     12920     12919     12921     12922     12920     12919     12921     12923
     12921     12923     12926     12927     12921     12923     12926     12928
     12921     12923     12926     12929     12922     12921     12923     12924
     12922     12921     12923     12925     12922     12921     12923     12926
     12923     12926     12929     12930     12923     12926     12929     12931
     12923     12926     12929     12932     12924     12923     12926     12927
     12924     12923     12926     12928     12924     12923     12926     12929
     12925     12923     12926     12927     12925     12923     12926     12928
     12925     12923     12926     12929     12926     12929     12932     12933
     12926     12929     12932     12934     12926     12929     12932     12935
     12927     12926     12929     12930     12927     12926     12929     12931
     12927     12926     12929     12932     12928     12926     12929     12930
     12928     12926     12929     12931     12928     12926     12929     12932
     12929     12932     12935     12936     12929     12932     12935     12937
     12929     12932     12935     12938     12930     12929     12932     12933
     12930     12929     12932     12934     12930     12929     12932     12935
     12931     12929     12932     12933     12931     12929     12932     12934
     12931     12929     12932     12935     12932     12935     12938     12939
     12932     12935     12938     12940     12932     12935     12938     12941
     12933     12932     12935     12936     12933     12932     12935     12937
     12933     12932     12935     12938     12934     12932     12935     12936
     12934     12932     12935     12937     12934     12932     12935     12938
     12935     12938     12941     12942     12935     12938     12941     12943
     12935     12938     12941     12944     12936     12935     12938     12939
     12936     12935     12938     12940     12936     12935     12938     12941
     12937     12935     12938     12939     12937     12935     12938     12940
     12937     12935     12938     12941     12938     12941     12944     12945
     12938     12941     12944     12946     12938     12941     12944     12947
     12939     12938     12941     12942     12939     12938     12941     12943
     12939     12938     12941     12944     12940     12938     12941     12942
     12940     12938     12941     12943     12940     12938     12941     12944
     12942     12941     12944     12945     12942     12941     12944     12946
     12942     12941     12944     12947     12943     12941     12944     12945
     12943     12941     12944     12946     12943     12941     12944     12947
     12948     12953     12955     12956     12948     12953     12957     12958
     12948     12953     12957     12959     12948     12953     12957     12964
     12949     12948     12951     12952     12949     12948     12953     12954
     12949     12948     12953     12955     12949     12948     12953     12957
     12950     12948     12951     12952     12950     12948     12953     12954
     12950     12948     12953     12955     12950     12948     12953     12957
     12951     12948     12953     12954     12951     12948     12953     12955
     12951     12948     12953     12957     12952     12951     12948     12953
     12953     12957     12964     12960     12954     12953     12955     12956
     12954     12953     12957     12958     12954     12953     12957     12959
     12954     12953     12957     12964     12955     12953     12957     12958
     12955     12953     12957     12959     12955     12953     12957     12964
     12956     12955     12953     12957     12957     12964     12960     12961
     12957     12964     12960     12962     12957     12964     12960     12963
     12958     12957     12964     12960     12959     12957     12964     12960
     12960     12963     12965     12966     12960     12963     12965     12967
     12960     12963     12965     12968     12961     12960     12963     12965
     12962     12960     12963     12965     12963     12965     12968     12969
     12963     12965     12968     12970     12963     12965     12968     12976
     12964     12960     12963     12965     12965     12968     12970     12971
     12965     12968     12976     12977     12965     12968     12976     12978
     12965     12968     12976     12979     12966     12965     12968     12969
     12966     12965     12968     12970     12966     12965     12968     12976
     12967     12965     12968     12969     12967     12965     12968     12970
     12967     12965     12968     12976     12968     12970     12971     12972
     12968     12970     12971     12973     12968     12976     12979     12980
     12969     12968     12970     12971     12969     12968     12976     12977
     12969     12968     12976     12978     12969     12968     12976     12979
     12970     12968     12976     12977     12970     12968     12976     12978
     12970     12968     12976     12979     12970     12971     12973     12974
     12970     12971     12973     12975     12970     12971     12973     12985
     12971     12970     12968     12976     12971     12973     12985     12986
     12971     12973     12985     12987     12971     12973     12985     12988
     12972     12971     12973     12974     12972     12971     12973     12975
     12972     12971     12973     12985     12973     12985     12988     12989
     12973     12985     12988     12990     12973     12985     12988     12991
     12974     12973     12985     12986     12974     12973     12985     12987
     12974     12973     12985     12988     12975     12973     12985     12986
     12975     12973     12985     12987     12975     12973     12985     12988
     12976     12979     12980     12981     12976     12979     12980     12982
     12977     12976     12979     12980     12978     12976     12979     12980
     12979     12980     12982     12983     12979     12980     12982     12984
     12979     12980     12982     13026     12980     12982     13026     13027
     12980     12982     13026     13028     12980     12982     13026     13029
     12981     12980     12982     12983     12981     12980     12982     12984
     12981     12980     12982     13026     12982     13026     13029     13030
     12982     13026     13029     13031     12982     13026     13029     13032
     12983     12982     13026     13027     12983     12982     13026     13028
     12983     12982     13026     13029     12984     12982     13026     13027
     12984     12982     13026     13028     12984     12982     13026     13029
     12985     12988     12991     12992     12985     12988     12991     12993
     12985     12988     12991     12994     12986     12985     12988     12989
     12986     12985     12988     12990     12986     12985     12988     12991
     12987     12985     12988     12989     12987     12985     12988     12990
     12987     12985     12988     12991     12988     12991     12994     12995
     12988     12991     12994     12996     12988     12991     12994     12997
     12989     12988     12991     12992     12989     12988     12991     12993
     12989     12988     12991     12994     12990     12988     12991     12992
     12990     12988     12991     12993     12990     12988     12991     12994
     12991     12994     12997     12998     12991     12994     12997     12999
     12991     12994     12997     13000     12992     12991     12994     12995
     12992     12991     12994     12996     12992     12991     12994     12997
     12993     12991     12994     12995     12993     12991     12994     12996
     12993     12991     12994     12997     12994     12997     13000     13001
     12994     12997     13000     13002     12994     12997     13000     13003
     12995     12994     12997     12998     12995     12994     12997     12999
     12995     12994     12997     13000     12996     12994     12997     12998
     12996     12994     12997     12999     12996     12994     12997     13000
     12997     13000     13003     13004     12997     13000     13003     13005
     12998     12997     13000     13001     12998     12997     13000     13002
     12998     12997     13000     13003     12999     12997     13000     13001
     12999     12997     13000     13002     12999     12997     13000     13003
     13000     13003     13005     13006     13000     13003     13005     13007
     13001     13000     13003     13004     13001     13000     13003     13005
     13002     13000     13003     13004     13002     13000     13003     13005
     13003     13005     13007     13008     13003     13005     13007     13009
     13003     13005     13007     13010     13004     13003     13005     13006
     13004     13003     13005     13007     13005     13007     13010     13011
     13005     13007     13010     13012     13005     13007     13010     13013
     13006     13005     13007     13008     13006     13005     13007     13009
     13006     13005     13007     13010     13007     13010     13013     13014
     13007     13010     13013     13015     13007     13010     13013     13016
     13008     13007     13010     13011     13008     13007     13010     13012
     13008     13007     13010     13013     13009     13007     13010     13011
     13009     13007     13010     13012     13009     13007     13010     13013
     13010     13013     13016     13017     13010     13013     13016     13018
     13010     13013     13016     13019     13011     13010     13013     13014
     13011     13010     13013     13015     13011     13010     13013     13016
     13012     13010     13013     13014     13012     13010     13013     13015
     13012     13010     13013     13016     13013     13016     13019     13020
     13013     13016     13019     13021     13013     13016     13019     13022
     13014     13013     13016     13017     13014     13013     13016     13018
     13014     13013     13016     13019     13015     13013     13016     13017
     13015     13013     13016     13018     13015     13013     13016     13019
     13016     13019     13022     13023     13016     13019     13022     13024
     13016     13019     13022     13025     13017     13016     13019     13020
     13017     13016     13019     13021     13017     13016     13019     13022
     13018     13016     13019     13020     13018     13016     13019     13021
     13018     13016     13019     13022     13020     13019     13022     13023
     13020     13019     13022     13024     13020     13019     13022     13025
     13021     13019     13022     13023     13021     13019     13022     13024
     13021     13019     13022     13025     13026     13029     13032     13033
     13026     13029     13032     13034     13026     13029     13032     13035
     13027     13026     13029     13030     13027     13026     13029     13031
     13027     13026     13029     13032     13028     13026     13029     13030
     13028     13026     13029     13031     13028     13026     13029     13032
     13029     13032     13035     13036     13029     13032     13035     13037
     13029     13032     13035     13038     13030     13029     13032     13033
     13030     13029     13032     13034     13030     13029     13032     13035
     13031     13029     13032     13033     13031     13029     13032     13034
     13031     13029     13032     13035     13032     13035     13038     13039
     13032     13035     13038     13040     13032     13035     13038     13041
     13033     13032     13035     13036     13033     13032     13035     13037
     13033     13032     13035     13038     13034     13032     13035     13036
     13034     13032     13035     13037     13034     13032     13035     13038
     13035     13038     13041     13042     13035     13038     13041     13043
     13035     13038     13041     13044     13036     13035     13038     13039
     13036     13035     13038     13040     13036     13035     13038     13041
     13037     13035     13038     13039     13037     13035     13038     13040
     13037     13035     13038     13041     13038     13041     13044     13045
     13038     13041     13044     13046     13038     13041     13044     13047
     13039     13038     13041     13042     13039     13038     13041     13043
     13039     13038     13041     13044     13040     13038     13041     13042
     13040     13038     13041     13043     13040     13038     13041     13044
     13041     13044     13047     13048     13041     13044     13047     13049
     13041     13044     13047     13050     13042     13041     13044     13045
     13042     13041     13044     13046     13042     13041     13044     13047
     13043     13041     13044     13045     13043     13041     13044     13046
     13043     13041     13044     13047     13044     13047     13050     13051
     13044     13047     13050     13052     13044     13047     13050     13053
     13045     13044     13047     13048     13045     13044     13047     13049
     13045     13044     13047     13050     13046     13044     13047     13048
     13046     13044     13047     13049     13046     13044     13047     13050
     13047     13050     13053     13054     13047     13050     13053     13055
     13047     13050     13053     13056     13048     13047     13050     13051
     13048     13047     13050     13052     13048     13047     13050     13053
     13049     13047     13050     13051     13049     13047     13050     13052
     13049     13047     13050     13053     13050     13053     13056     13057
     13050     13053     13056     13058     13050     13053     13056     13059
     13051     13050     13053     13054     13051     13050     13053     13055
     13051     13050     13053     13056     13052     13050     13053     13054
     13052     13050     13053     13055     13052     13050     13053     13056
     13053     13056     13059     13060     13053     13056     13059     13061
     13053     13056     13059     13062     13054     13053     13056     13057
     13054     13053     13056     13058     13054     13053     13056     13059
     13055     13053     13056     13057     13055     13053     13056     13058
     13055     13053     13056     13059     13056     13059     13062     13063
     13056     13059     13062     13064     13056     13059     13062     13065
     13057     13056     13059     13060     13057     13056     13059     13061
     13057     13056     13059     13062     13058     13056     13059     13060
     13058     13056     13059     13061     13058     13056     13059     13062
     13059     13062     13065     13066     13059     13062     13065     13067
     13059     13062     13065     13068     13060     13059     13062     13063
     13060     13059     13062     13064     13060     13059     13062     13065
     13061     13059     13062     13063     13061     13059     13062     13064
     13061     13059     13062     13065     13063     13062     13065     13066
     13063     13062     13065     13067     13063     13062     13065     13068
     13064     13062     13065     13066     13064     13062     13065     13067
     13064     13062     13065     13068     13069     13074     13076     13077
     13069     13074     13078     13079     13069     13074     13078     13080
     13069     13074     13078     13085     13070     13069     13072     13073
     13070     13069     13074     13075     13070     13069     13074     13076
     13070     13069     13074     13078     13071     13069     13072     13073
     13071     13069     13074     13075     13071     13069     13074     13076
     13071     13069     13074     13078     13072     13069     13074     13075
     13072     13069     13074     13076     13072     13069     13074     13078
     13073     13072     13069     13074     13074     13078     13085     13081
     13075     13074     13076     13077     13075     13074     13078     13079
     13075     13074     13078     13080     13075     13074     13078     13085
     13076     13074     13078     13079     13076     13074     13078     13080
     13076     13074     13078     13085     13077     13076     13074     13078
     13078     13085     13081     13082     13078     13085     13081     13083
     13078     13085     13081     13084     13079     13078     13085     13081
     13080     13078     13085     13081     13081     13084     13086     13087
     13081     13084     13086     13088     13081     13084     13086     13089
     13082     13081     13084     13086     13083     13081     13084     13086
     13084     13086     13089     13090     13084     13086     13089     13091
     13084     13086     13089     13097     13085     13081     13084     13086
     13086     13089     13091     13092     13086     13089     13097     13098
     13086     13089     13097     13099     13086     13089     13097     13100
     13087     13086     13089     13090     13087     13086     13089     13091
     13087     13086     13089     13097     13088     13086     13089     13090
     13088     13086     13089     13091     13088     13086     13089     13097
     13089     13091     13092     13093     13089     13091     13092     13094
     13089     13097     13100     13101     13090     13089     13091     13092
     13090     13089     13097     13098     13090     13089     13097     13099
     13090     13089     13097     13100     13091     13089     13097     13098
     13091     13089     13097     13099     13091     13089     13097     13100
     13091     13092     13094     13095     13091     13092     13094     13096
     13091     13092     13094     13106     13092     13091     13089     13097
     13092     13094     13106     13107     13092     13094     13106     13108
     13092     13094     13106     13109     13093     13092     13094     13095
     13093     13092     13094     13096     13093     13092     13094     13106
     13094     13106     13109     13110     13094     13106     13109     13111
     13094     13106     13109     13112     13095     13094     13106     13107
     13095     13094     13106     13108     13095     13094     13106     13109
     13096     13094     13106     13107     13096     13094     13106     13108
     13096     13094     13106     13109     13097     13100     13101     13102
     13097     13100     13101     13103     13098     13097     13100     13101
     13099     13097     13100     13101     13100     13101     13103     13104
     13100     13101     13103     13105     13100     13101     13103     13147
     13101     13103     13147     13148     13101     13103     13147     13149
     13101     13103     13147     13150     13102     13101     13103     13104
     13102     13101     13103     13105     13102     13101     13103     13147
     13103     13147     13150     13151     13103     13147     13150     13152
     13103     13147     13150     13153     13104     13103     13147     13148
     13104     13103     13147     13149     13104     13103     13147     13150
     13105     13103     13147     13148     13105     13103     13147     13149
     13105     13103     13147     13150     13106     13109     13112     13113
     13106     13109     13112     13114     13106     13109     13112     13115
     13107     13106     13109     13110     13107     13106     13109     13111
     13107     13106     13109     13112     13108     13106     13109     13110
     13108     13106     13109     13111     13108     13106     13109     13112
     13109     13112     13115     13116     13109     13112     13115     13117
     13109     13112     13115     13118     13110     13109     13112     13113
     13110     13109     13112     13114     13110     13109     13112     13115
     13111     13109     13112     13113     13111     13109     13112     13114
     13111     13109     13112     13115     13112     13115     13118     13119
     13112     13115     13118     13120     13112     13115     13118     13121
     13113     13112     13115     13116     13113     13112     13115     13117
     13113     13112     13115     13118     13114     13112     13115     13116
     13114     13112     13115     13117     13114     13112     13115     13118
     13115     13118     13121     13122     13115     13118     13121     13123
     13115     13118     13121     13124     13116     13115     13118     13119
     13116     13115     13118     13120     13116     13115     13118     13121
     13117     13115     13118     13119     13117     13115     13118     13120
     13117     13115     13118     13121     13118     13121     13124     13125
     13118     13121     13124     13126     13119     13118     13121     13122
     13119     13118     13121     13123     13119     13118     13121     13124
     13120     13118     13121     13122     13120     13118     13121     13123
     13120     13118     13121     13124     13121     13124     13126     13127
     13121     13124     13126     13128     13122     13121     13124     13125
     13122     13121     13124     13126     13123     13121     13124     13125
     13123     13121     13124     13126     13124     13126     13128     13129
     13124     13126     13128     13130     13124     13126     13128     13131
     13125     13124     13126     13127     13125     13124     13126     13128
     13126     13128     13131     13132     13126     13128     13131     13133
     13126     13128     13131     13134     13127     13126     13128     13129
     13127     13126     13128     13130     13127     13126     13128     13131
     13128     13131     13134     13135     13128     13131     13134     13136
     13128     13131     13134     13137     13129     13128     13131     13132
     13129     13128     13131     13133     13129     13128     13131     13134
     13130     13128     13131     13132     13130     13128     13131     13133
     13130     13128     13131     13134     13131     13134     13137     13138
     13131     13134     13137     13139     13131     13134     13137     13140
     13132     13131     13134     13135     13132     13131     13134     13136
     13132     13131     13134     13137     13133     13131     13134     13135
     13133     13131     13134     13136     13133     13131     13134     13137
     13134     13137     13140     13141     13134     13137     13140     13142
     13134     13137     13140     13143     13135     13134     13137     13138
     13135     13134     13137     13139     13135     13134     13137     13140
     13136     13134     13137     13138     13136     13134     13137     13139
     13136     13134     13137     13140     13137     13140     13143     13144
     13137     13140     13143     13145     13137     13140     13143     13146
     13138     13137     13140     13141     13138     13137     13140     13142
     13138     13137     13140     13143     13139     13137     13140     13141
     13139     13137     13140     13142     13139     13137     13140     13143
     13141     13140     13143     13144     13141     13140     13143     13145
     13141     13140     13143     13146     13142     13140     13143     13144
     13142     13140     13143     13145     13142     13140     13143     13146
     13147     13150     13153     13154     13147     13150     13153     13155
     13147     13150     13153     13156     13148     13147     13150     13151
     13148     13147     13150     13152     13148     13147     13150     13153
     13149     13147     13150     13151     13149     13147     13150     13152
     13149     13147     13150     13153     13150     13153     13156     13157
     13150     13153     13156     13158     13150     13153     13156     13159
     13151     13150     13153     13154     13151     13150     13153     13155
     13151     13150     13153     13156     13152     13150     13153     13154
     13152     13150     13153     13155     13152     13150     13153     13156
     13153     13156     13159     13160     13153     13156     13159     13161
     13153     13156     13159     13162     13154     13153     13156     13157
     13154     13153     13156     13158     13154     13153     13156     13159
     13155     13153     13156     13157     13155     13153     13156     13158
     13155     13153     13156     13159     13156     13159     13162     13163
     13156     13159     13162     13164     13156     13159     13162     13165
     13157     13156     13159     13160     13157     13156     13159     13161
     13157     13156     13159     13162     13158     13156     13159     13160
     13158     13156     13159     13161     13158     13156     13159     13162
     13159     13162     13165     13166     13159     13162     13165     13167
     13159     13162     13165     13168     13160     13159     13162     13163
     13160     13159     13162     13164     13160     13159     13162     13165
     13161     13159     13162     13163     13161     13159     13162     13164
     13161     13159     13162     13165     13162     13165     13168     13169
     13162     13165     13168     13170     13162     13165     13168     13171
     13163     13162     13165     13166     13163     13162     13165     13167
     13163     13162     13165     13168     13164     13162     13165     13166
     13164     13162     13165     13167     13164     13162     13165     13168
     13165     13168     13171     13172     13165     13168     13171     13173
     13165     13168     13171     13174     13166     13165     13168     13169
     13166     13165     13168     13170     13166     13165     13168     13171
     13167     13165     13168     13169     13167     13165     13168     13170
     13167     13165     13168     13171     13168     13171     13174     13175
     13168     13171     13174     13176     13168     13171     13174     13177
     13169     13168     13171     13172     13169     13168     13171     13173
     13169     13168     13171     13174     13170     13168     13171     13172
     13170     13168     13171     13173     13170     13168     13171     13174
     13171     13174     13177     13178     13171     13174     13177     13179
     13171     13174     13177     13180     13172     13171     13174     13175
     13172     13171     13174     13176     13172     13171     13174     13177
     13173     13171     13174     13175     13173     13171     13174     13176
     13173     13171     13174     13177     13174     13177     13180     13181
     13174     13177     13180     13182     13174     13177     13180     13183
     13175     13174     13177     13178     13175     13174     13177     13179
     13175     13174     13177     13180     13176     13174     13177     13178
     13176     13174     13177     13179     13176     13174     13177     13180
     13177     13180     13183     13184     13177     13180     13183     13185
     13177     13180     13183     13186     13178     13177     13180     13181
     13178     13177     13180     13182     13178     13177     13180     13183
     13179     13177     13180     13181     13179     13177     13180     13182
     13179     13177     13180     13183     13180     13183     13186     13187
     13180     13183     13186     13188     13180     13183     13186     13189
     13181     13180     13183     13184     13181     13180     13183     13185
     13181     13180     13183     13186     13182     13180     13183     13184
     13182     13180     13183     13185     13182     13180     13183     13186
     13184     13183     13186     13187     13184     13183     13186     13188
     13184     13183     13186     13189     13185     13183     13186     13187
     13185     13183     13186     13188     13185     13183     13186     13189
     13190     13194     13197     13198     13190     13194     13197     13199
     13190     13194     13197     13204     13191     13190     13194     13195
     13191     13190     13194     13196     13191     13190     13194     13197
     13192     13190     13194     13195     13192     13190     13194     13196
     13192     13190     13194     13197     13193     13190     13194     13195
     13193     13190     13194     13196     13193     13190     13194     13197
     13194     13197     13204     13200     13195     13194     13197     13198
     13195     13194     13197     13199     13195     13194     13197     13204
     13196     13194     13197     13198     13196     13194     13197     13199
     13196     13194     13197     13204     13197     13204     13200     13201
     13197     13204     13200     13202     13197     13204     13200     13203
     13198     13197     13204     13200     13199     13197     13204     13200
     13200     13203     13205     13206     13200     13203     13205     13207
     13200     13203     13205     13208     13201     13200     13203     13205
     13202     13200     13203     13205     13203     13205     13208     13209
     13203     13205     13208     13210     13203     13205     13208     13216
     13204     13200     13203     13205     13205     13208     13210     13211
     13205     13208     13216     13217     13205     13208     13216     13218
     13205     13208     13216     13219     13206     13205     13208     13209
     13206     13205     13208     13210     13206     13205     13208     13216
     13207     13205     13208     13209     13207     13205     13208     13210
     13207     13205     13208     13216     13208     13210     13211     13212
     13208     13210     13211     13213     13208     13216     13219     13220
     13209     13208     13210     13211     13209     13208     13216     13217
     13209     13208     13216     13218     13209     13208     13216     13219
     13210     13208     13216     13217     13210     13208     13216     13218
     13210     13208     13216     13219     13210     13211     13213     13214
     13210     13211     13213     13215     13210     13211     13213     13225
     13211     13210     13208     13216     13211     13213     13225     13226
     13211     13213     13225     13227     13211     13213     13225     13228
     13212     13211     13213     13214     13212     13211     13213     13215
     13212     13211     13213     13225     13213     13225     13228     13229
     13213     13225     13228     13230     13213     13225     13228     13231
     13214     13213     13225     13226     13214     13213     13225     13227
     13214     13213     13225     13228     13215     13213     13225     13226
     13215     13213     13225     13227     13215     13213     13225     13228
     13216     13219     13220     13221     13216     13219     13220     13222
     13217     13216     13219     13220     13218     13216     13219     13220
     13219     13220     13222     13223     13219     13220     13222     13224
     13219     13220     13222     13272     13220     13222     13272     13273
     13220     13222     13272     13274     13220     13222     13272     13275
     13221     13220     13222     13223     13221     13220     13222     13224
     13221     13220     13222     13272     13222     13272     13275     13276
     13222     13272     13275     13277     13222     13272     13275     13278
     13223     13222     13272     13273     13223     13222     13272     13274
     13223     13222     13272     13275     13224     13222     13272     13273
     13224     13222     13272     13274     13224     13222     13272     13275
     13225     13228     13231     13232     13225     13228     13231     13233
     13225     13228     13231     13234     13226     13225     13228     13229
     13226     13225     13228     13230     13226     13225     13228     13231
     13227     13225     13228     13229     13227     13225     13228     13230
     13227     13225     13228     13231     13228     13231     13234     13235
     13228     13231     13234     13236     13228     13231     13234     13237
     13229     13228     13231     13232     13229     13228     13231     13233
     13229     13228     13231     13234     13230     13228     13231     13232
     13230     13228     13231     13233     13230     13228     13231     13234
     13231     13234     13237     13238     13231     13234     13237     13239
     13231     13234     13237     13240     13232     13231     13234     13235
     13232     13231     13234     13236     13232     13231     13234     13237
     13233     13231     13234     13235     13233     13231     13234     13236
     13233     13231     13234     13237     13234     13237     13240     13241
     13234     13237     13240     13242     13234     13237     13240     13243
     13235     13234     13237     13238     13235     13234     13237     13239
     13235     13234     13237     13240     13236     13234     13237     13238
     13236     13234     13237     13239     13236     13234     13237     13240
     13237     13240     13243     13244     13237     13240     13243     13245
     13238     13237     13240     13241     13238     13237     13240     13242
     13238     13237     13240     13243     13239     13237     13240     13241
     13239     13237     13240     13242     13239     13237     13240     13243
     13240     13243     13245     13246     13240     13243     13245     13247
     13241     13240     13243     13244     13241     13240     13243     13245
     13242     13240     13243     13244     13242     13240     13243     13245
     13243     13245     13247     13248     13243     13245     13247     13249
     13243     13245     13247     13250     13244     13243     13245     13246
     13244     13243     13245     13247     13245     13247     13250     13251
     13245     13247     13250     13252     13245     13247     13250     13253
     13246     13245     13247     13248     13246     13245     13247     13249
     13246     13245     13247     13250     13247     13250     13253     13254
     13247     13250     13253     13255     13247     13250     13253     13256
     13248     13247     13250     13251     13248     13247     13250     13252
     13248     13247     13250     13253     13249     13247     13250     13251
     13249     13247     13250     13252     13249     13247     13250     13253
     13250     13253     13256     13257     13250     13253     13256     13258
     13250     13253     13256     13259     13251     13250     13253     13254
     13251     13250     13253     13255     13251     13250     13253     13256
     13252     13250     13253     13254     13252     13250     13253     13255
     13252     13250     13253     13256     13253     13256     13259     13260
     13253     13256     13259     13261     13253     13256     13259     13262
     13254     13253     13256     13257     13254     13253     13256     13258
     13254     13253     13256     13259     13255     13253     13256     13257
     13255     13253     13256     13258     13255     13253     13256     13259
     13256     13259     13262     13263     13256     13259     13262     13264
     13256     13259     13262     13265     13257     13256     13259     13260
     13257     13256     13259     13261     13257     13256     13259     13262
     13258     13256     13259     13260     13258     13256     13259     13261
     13258     13256     13259     13262     13259     13262     13265     13266
     13259     13262     13265     13267     13259     13262     13265     13268
     13260     13259     13262     13263     13260     13259     13262     13264
     13260     13259     13262     13265     13261     13259     13262     13263
     13261     13259     13262     13264     13261     13259     13262     13265
     13262     13265     13268     13269     13262     13265     13268     13270
     13262     13265     13268     13271     13263     13262     13265     13266
     13263     13262     13265     13267     13263     13262     13265     13268
     13264     13262     13265     13266     13264     13262     13265     13267
     13264     13262     13265     13268     13266     13265     13268     13269
     13266     13265     13268     13270     13266     13265     13268     13271
     13267     13265     13268     13269     13267     13265     13268     13270
     13267     13265     13268     13271     13272     13275     13278     13279
     13272     13275     13278     13280     13272     13275     13278     13281
     13273     13272     13275     13276     13273     13272     13275     13277
     13273     13272     13275     13278     13274     13272     13275     13276
     13274     13272     13275     13277     13274     13272     13275     13278
     13275     13278     13281     13282     13275     13278     13281     13283
     13275     13278     13281     13284     13276     13275     13278     13279
     13276     13275     13278     13280     13276     13275     13278     13281
     13277     13275     13278     13279     13277     13275     13278     13280
     13277     13275     13278     13281     13278     13281     13284     13285
     13278     13281     13284     13286     13278     13281     13284     13287
     13279     13278     13281     13282     13279     13278     13281     13283
     13279     13278     13281     13284     13280     13278     13281     13282
     13280     13278     13281     13283     13280     13278     13281     13284
     13281     13284     13287     13288     13281     13284     13287     13289
     13281     13284     13287     13290     13282     13281     13284     13285
     13282     13281     13284     13286     13282     13281     13284     13287
     13283     13281     13284     13285     13283     13281     13284     13286
     13283     13281     13284     13287     13284     13287     13290     13291
     13284     13287     13290     13292     13284     13287     13290     13293
     13285     13284     13287     13288     13285     13284     13287     13289
     13285     13284     13287     13290     13286     13284     13287     13288
     13286     13284     13287     13289     13286     13284     13287     13290
     13287     13290     13293     13294     13287     13290     13293     13295
     13287     13290     13293     13296     13288     13287     13290     13291
     13288     13287     13290     13292     13288     13287     13290     13293
     13289     13287     13290     13291     13289     13287     13290     13292
     13289     13287     13290     13293     13290     13293     13296     13297
     13290     13293     13296     13298     13290     13293     13296     13299
     13291     13290     13293     13294     13291     13290     13293     13295
     13291     13290     13293     13296     13292     13290     13293     13294
     13292     13290     13293     13295     13292     13290     13293     13296
     13293     13296     13299     13300     13293     13296     13299     13301
     13293     13296     13299     13302     13294     13293     13296     13297
     13294     13293     13296     13298     13294     13293     13296     13299
     13295     13293     13296     13297     13295     13293     13296     13298
     13295     13293     13296     13299     13296     13299     13302     13303
     13296     13299     13302     13304     13296     13299     13302     13305
     13297     13296     13299     13300     13297     13296     13299     13301
     13297     13296     13299     13302     13298     13296     13299     13300
     13298     13296     13299     13301     13298     13296     13299     13302
     13299     13302     13305     13306     13299     13302     13305     13307
     13299     13302     13305     13308     13300     13299     13302     13303
     13300     13299     13302     13304     13300     13299     13302     13305
     13301     13299     13302     13303     13301     13299     13302     13304
     13301     13299     13302     13305     13302     13305     13308     13309
     13302     13305     13308     13310     13302     13305     13308     13311
     13303     13302     13305     13306     13303     13302     13305     13307
     13303     13302     13305     13308     13304     13302     13305     13306
     13304     13302     13305     13307     13304     13302     13305     13308
     13305     13308     13311     13312     13305     13308     13311     13313
     13305     13308     13311     13314     13306     13305     13308     13309
     13306     13305     13308     13310     13306     13305     13308     13311
     13307     13305     13308     13309     13307     13305     13308     13310
     13307     13305     13308     13311     13309     13308     13311     13312
     13309     13308     13311     13313     13309     13308     13311     13314
     13310     13308     13311     13312     13310     13308     13311     13313
     13310     13308     13311     13314     13315     13319     13322     13323
     13315     13319     13322     13324     13315     13319     13322     13329
     13316     13315     13319     13320     13316     13315     13319     13321
     13316     13315     13319     13322     13317     13315     13319     13320
     13317     13315     13319     13321     13317     13315     13319     13322
     13318     13315     13319     13320     13318     13315     13319     13321
     13318     13315     13319     13322     13319     13322     13329     13325
     13320     13319     13322     13323     13320     13319     13322     13324
     13320     13319     13322     13329     13321     13319     13322     13323
     13321     13319     13322     13324     13321     13319     13322     13329
     13322     13329     13325     13326     13322     13329     13325     13327
     13322     13329     13325     13328     13323     13322     13329     13325
     13324     13322     13329     13325     13325     13328     13330     13331
     13325     13328     13330     13332     13325     13328     13330     13333
     13326     13325     13328     13330     13327     13325     13328     13330
     13328     13330     13333     13334     13328     13330     13333     13335
     13328     13330     13333     13341     13329     13325     13328     13330
     13330     13333     13335     13336     13330     13333     13341     13342
     13330     13333     13341     13343     13330     13333     13341     13344
     13331     13330     13333     13334     13331     13330     13333     13335
     13331     13330     13333     13341     13332     13330     13333     13334
     13332     13330     13333     13335     13332     13330     13333     13341
     13333     13335     13336     13337     13333     13335     13336     13338
     13333     13341     13344     13345     13334     13333     13335     13336
     13334     13333     13341     13342     13334     13333     13341     13343
     13334     13333     13341     13344     13335     13333     13341     13342
     13335     13333     13341     13343     13335     13333     13341     13344
     13335     13336     13338     13339     13335     13336     13338     13340
     13335     13336     13338     13350     13336     13335     13333     13341
     13336     13338     13350     13351     13336     13338     13350     13352
     13336     13338     13350     13353     13337     13336     13338     13339
     13337     13336     13338     13340     13337     13336     13338     13350
     13338     13350     13353     13354     13338     13350     13353     13355
     13338     13350     13353     13356     13339     13338     13350     13351
     13339     13338     13350     13352     13339     13338     13350     13353
     13340     13338     13350     13351     13340     13338     13350     13352
     13340     13338     13350     13353     13341     13344     13345     13346
     13341     13344     13345     13347     13342     13341     13344     13345
     13343     13341     13344     13345     13344     13345     13347     13348
     13344     13345     13347     13349     13344     13345     13347     13394
     13345     13347     13394     13395     13345     13347     13394     13396
     13345     13347     13394     13397     13346     13345     13347     13348
     13346     13345     13347     13349     13346     13345     13347     13394
     13347     13394     13397     13398     13347     13394     13397     13399
     13347     13394     13397     13400     13348     13347     13394     13395
     13348     13347     13394     13396     13348     13347     13394     13397
     13349     13347     13394     13395     13349     13347     13394     13396
     13349     13347     13394     13397     13350     13353     13356     13357
     13350     13353     13356     13358     13350     13353     13356     13359
     13351     13350     13353     13354     13351     13350     13353     13355
     13351     13350     13353     13356     13352     13350     13353     13354
     13352     13350     13353     13355     13352     13350     13353     13356
     13353     13356     13359     13360     13353     13356     13359     13361
     13353     13356     13359     13362     13354     13353     13356     13357
     13354     13353     13356     13358     13354     13353     13356     13359
     13355     13353     13356     13357     13355     13353     13356     13358
     13355     13353     13356     13359     13356     13359     13362     13363
     13356     13359     13362     13364     13356     13359     13362     13365
     13357     13356     13359     13360     13357     13356     13359     13361
     13357     13356     13359     13362     13358     13356     13359     13360
     13358     13356     13359     13361     13358     13356     13359     13362
     13359     13362     13365     13366     13359     13362     13365     13367
     13359     13362     13365     13368     13360     13359     13362     13363
     13360     13359     13362     13364     13360     13359     13362     13365
     13361     13359     13362     13363     13361     13359     13362     13364
     13361     13359     13362     13365     13362     13365     13368     13369
     13362     13365     13368     13370     13362     13365     13368     13373
     13363     13362     13365     13366     13363     13362     13365     13367
     13363     13362     13365     13368     13364     13362     13365     13366
     13364     13362     13365     13367     13364     13362     13365     13368
     13365     13368     13370     13371     13365     13368     13370     13372
     13365     13368     13370     13373     13365     13368     13373     13370
     13365     13368     13373     13374     13365     13368     13373     13375
     13366     13365     13368     13369     13366     13365     13368     13370
     13366     13365     13368     13373     13367     13365     13368     13369
     13367     13365     13368     13370     13367     13365     13368     13373
     13368     13370     13373     13374     13368     13370     13373     13375
     13368     13373     13370     13371     13368     13373     13370     13372
     13368     13373     13375     13376     13368     13373     13375     13377
     13368     13373     13375     13378     13369     13368     13370     13371
     13369     13368     13370     13372     13369     13368     13370     13373
     13369     13368     13373     13370     13369     13368     13373     13374
     13369     13368     13373     13375     13370     13368     13373     13374
     13370     13368     13373     13375     13370     13373     13375     13376
     13370     13373     13375     13377     13370     13373     13375     13378
     13371     13370     13368     13373     13371     13370     13373     13374
     13371     13370     13373     13375     13372     13370     13368     13373
     13372     13370     13373     13374     13372     13370     13373     13375
     13373     13375     13378     13379     13373     13375     13378     13380
     13373     13375     13378     13381     13374     13373     13375     13376
     13374     13373     13375     13377     13374     13373     13375     13378
     13375     13378     13381     13382     13375     13378     13381     13383
     13375     13378     13381     13384     13376     13375     13378     13379
     13376     13375     13378     13380     13376     13375     13378     13381
     13377     13375     13378     13379     13377     13375     13378     13380
     13377     13375     13378     13381     13378     13381     13384     13385
     13378     13381     13384     13386     13378     13381     13384     13387
     13379     13378     13381     13382     13379     13378     13381     13383
     13379     13378     13381     13384     13380     13378     13381     13382
     13380     13378     13381     13383     13380     13378     13381     13384
     13381     13384     13387     13388     13381     13384     13387     13389
     13381     13384     13387     13390     13382     13381     13384     13385
     13382     13381     13384     13386     13382     13381     13384     13387
     13383     13381     13384     13385     13383     13381     13384     13386
     13383     13381     13384     13387     13384     13387     13390     13391
     13384     13387     13390     13392     13384     13387     13390     13393
     13385     13384     13387     13388     13385     13384     13387     13389
     13385     13384     13387     13390     13386     13384     13387     13388
     13386     13384     13387     13389     13386     13384     13387     13390
     13388     13387     13390     13391     13388     13387     13390     13392
     13388     13387     13390     13393     13389     13387     13390     13391
     13389     13387     13390     13392     13389     13387     13390     13393
     13394     13397     13400     13401     13394     13397     13400     13402
     13394     13397     13400     13403     13395     13394     13397     13398
     13395     13394     13397     13399     13395     13394     13397     13400
     13396     13394     13397     13398     13396     13394     13397     13399
     13396     13394     13397     13400     13397     13400     13403     13404
     13397     13400     13403     13405     13397     13400     13403     13406
     13398     13397     13400     13401     13398     13397     13400     13402
     13398     13397     13400     13403     13399     13397     13400     13401
     13399     13397     13400     13402     13399     13397     13400     13403
     13400     13403     13406     13407     13400     13403     13406     13408
     13400     13403     13406     13409     13401     13400     13403     13404
     13401     13400     13403     13405     13401     13400     13403     13406
     13402     13400     13403     13404     13402     13400     13403     13405
     13402     13400     13403     13406     13403     13406     13409     13410
     13403     13406     13409     13411     13403     13406     13409     13412
     13404     13403     13406     13407     13404     13403     13406     13408
     13404     13403     13406     13409     13405     13403     13406     13407
     13405     13403     13406     13408     13405     13403     13406     13409
     13406     13409     13412     13413     13406     13409     13412     13414
     13406     13409     13412     13415     13407     13406     13409     13410
     13407     13406     13409     13411     13407     13406     13409     13412
     13408     13406     13409     13410     13408     13406     13409     13411
     13408     13406     13409     13412     13409     13412     13415     13416
     13409     13412     13415     13417     13409     13412     13415     13418
     13410     13409     13412     13413     13410     13409     13412     13414
     13410     13409     13412     13415     13411     13409     13412     13413
     13411     13409     13412     13414     13411     13409     13412     13415
     13412     13415     13418     13419     13412     13415     13418     13420
     13412     13415     13418     13421     13413     13412     13415     13416
     13413     13412     13415     13417     13413     13412     13415     13418
     13414     13412     13415     13416     13414     13412     13415     13417
     13414     13412     13415     13418     13415     13418     13421     13422
     13415     13418     13421     13423     13415     13418     13421     13424
     13416     13415     13418     13419     13416     13415     13418     13420
     13416     13415     13418     13421     13417     13415     13418     13419
     13417     13415     13418     13420     13417     13415     13418     13421
     13418     13421     13424     13425     13418     13421     13424     13426
     13418     13421     13424     13427     13419     13418     13421     13422
     13419     13418     13421     13423     13419     13418     13421     13424
     13420     13418     13421     13422     13420     13418     13421     13423
     13420     13418     13421     13424     13421     13424     13427     13428
     13421     13424     13427     13429     13421     13424     13427     13430
     13422     13421     13424     13425     13422     13421     13424     13426
     13422     13421     13424     13427     13423     13421     13424     13425
     13423     13421     13424     13426     13423     13421     13424     13427
     13424     13427     13430     13431     13424     13427     13430     13432
     13424     13427     13430     13433     13425     13424     13427     13428
     13425     13424     13427     13429     13425     13424     13427     13430
     13426     13424     13427     13428     13426     13424     13427     13429
     13426     13424     13427     13430     13427     13430     13433     13434
     13427     13430     13433     13435     13427     13430     13433     13436
     13428     13427     13430     13431     13428     13427     13430     13432
     13428     13427     13430     13433     13429     13427     13430     13431
     13429     13427     13430     13432     13429     13427     13430     13433
     13431     13430     13433     13434     13431     13430     13433     13435
     13431     13430     13433     13436     13432     13430     13433     13434
     13432     13430     13433     13435     13432     13430     13433     13436
     13437     13441     13444     13445     13437     13441     13444     13446
     13437     13441     13444     13451     13438     13437     13441     13442
     13438     13437     13441     13443     13438     13437     13441     13444
     13439     13437     13441     13442     13439     13437     13441     13443
     13439     13437     13441     13444     13440     13437     13441     13442
     13440     13437     13441     13443     13440     13437     13441     13444
     13441     13444     13451     13447     13442     13441     13444     13445
     13442     13441     13444     13446     13442     13441     13444     13451
     13443     13441     13444     13445     13443     13441     13444     13446
     13443     13441     13444     13451     13444     13451     13447     13448
     13444     13451     13447     13449     13444     13451     13447     13450
     13445     13444     13451     13447     13446     13444     13451     13447
     13447     13450     13452     13453     13447     13450     13452     13454
     13447     13450     13452     13455     13448     13447     13450     13452
     13449     13447     13450     13452     13450     13452     13455     13456
     13450     13452     13455     13457     13450     13452     13455     13463
     13451     13447     13450     13452     13452     13455     13457     13458
     13452     13455     13463     13464     13452     13455     13463     13465
     13452     13455     13463     13466     13453     13452     13455     13456
     13453     13452     13455     13457     13453     13452     13455     13463
     13454     13452     13455     13456     13454     13452     13455     13457
     13454     13452     13455     13463     13455     13457     13458     13459
     13455     13457     13458     13460     13455     13463     13466     13467
     13456     13455     13457     13458     13456     13455     13463     13464
     13456     13455     13463     13465     13456     13455     13463     13466
     13457     13455     13463     13464     13457     13455     13463     13465
     13457     13455     13463     13466     13457     13458     13460     13461
     13457     13458     13460     13462     13457     13458     13460     13472
     13458     13457     13455     13463     13458     13460     13472     13473
     13458     13460     13472     13474     13458     13460     13472     13475
     13459     13458     13460     13461     13459     13458     13460     13462
     13459     13458     13460     13472     13460     13472     13475     13476
     13460     13472     13475     13477     13460     13472     13475     13478
     13461     13460     13472     13473     13461     13460     13472     13474
     13461     13460     13472     13475     13462     13460     13472     13473
     13462     13460     13472     13474     13462     13460     13472     13475
     13463     13466     13467     13468     13463     13466     13467     13469
     13464     13463     13466     13467     13465     13463     13466     13467
     13466     13467     13469     13470     13466     13467     13469     13471
     13466     13467     13469     13519     13467     13469     13519     13520
     13467     13469     13519     13521     13467     13469     13519     13522
     13468     13467     13469     13470     13468     13467     13469     13471
     13468     13467     13469     13519     13469     13519     13522     13523
     13469     13519     13522     13524     13469     13519     13522     13525
     13470     13469     13519     13520     13470     13469     13519     13521
     13470     13469     13519     13522     13471     13469     13519     13520
     13471     13469     13519     13521     13471     13469     13519     13522
     13472     13475     13478     13479     13472     13475     13478     13480
     13472     13475     13478     13481     13473     13472     13475     13476
     13473     13472     13475     13477     13473     13472     13475     13478
     13474     13472     13475     13476     13474     13472     13475     13477
     13474     13472     13475     13478     13475     13478     13481     13482
     13475     13478     13481     13483     13475     13478     13481     13484
     13476     13475     13478     13479     13476     13475     13478     13480
     13476     13475     13478     13481     13477     13475     13478     13479
     13477     13475     13478     13480     13477     13475     13478     13481
     13478     13481     13484     13485     13478     13481     13484     13486
     13478     13481     13484     13487     13479     13478     13481     13482
     13479     13478     13481     13483     13479     13478     13481     13484
     13480     13478     13481     13482     13480     13478     13481     13483
     13480     13478     13481     13484     13481     13484     13487     13488
     13481     13484     13487     13489     13481     13484     13487     13490
     13482     13481     13484     13485     13482     13481     13484     13486
     13482     13481     13484     13487     13483     13481     13484     13485
     13483     13481     13484     13486     13483     13481     13484     13487
     13484     13487     13490     13491     13484     13487     13490     13492
     13485     13484     13487     13488     13485     13484     13487     13489
     13485     13484     13487     13490     13486     13484     13487     13488
     13486     13484     13487     13489     13486     13484     13487     13490
     13487     13490     13492     13493     13487     13490     13492     13494
     13488     13487     13490     13491     13488     13487     13490     13492
     13489     13487     13490     13491     13489     13487     13490     13492
     13490     13492     13494     13495     13490     13492     13494     13496
     13490     13492     13494     13497     13491     13490     13492     13493
     13491     13490     13492     13494     13492     13494     13497     13498
     13492     13494     13497     13499     13492     13494     13497     13500
     13493     13492     13494     13495     13493     13492     13494     13496
     13493     13492     13494     13497     13494     13497     13500     13501
     13494     13497     13500     13502     13494     13497     13500     13503
     13495     13494     13497     13498     13495     13494     13497     13499
     13495     13494     13497     13500     13496     13494     13497     13498
     13496     13494     13497     13499     13496     13494     13497     13500
     13497     13500     13503     13504     13497     13500     13503     13505
     13497     13500     13503     13506     13498     13497     13500     13501
     13498     13497     13500     13502     13498     13497     13500     13503
     13499     13497     13500     13501     13499     13497     13500     13502
     13499     13497     13500     13503     13500     13503     13506     13507
     13500     13503     13506     13508     13500     13503     13506     13509
     13501     13500     13503     13504     13501     13500     13503     13505
     13501     13500     13503     13506     13502     13500     13503     13504
     13502     13500     13503     13505     13502     13500     13503     13506
     13503     13506     13509     13510     13503     13506     13509     13511
     13503     13506     13509     13512     13504     13503     13506     13507
     13504     13503     13506     13508     13504     13503     13506     13509
     13505     13503     13506     13507     13505     13503     13506     13508
     13505     13503     13506     13509     13506     13509     13512     13513
     13506     13509     13512     13514     13506     13509     13512     13515
     13507     13506     13509     13510     13507     13506     13509     13511
     13507     13506     13509     13512     13508     13506     13509     13510
     13508     13506     13509     13511     13508     13506     13509     13512
     13509     13512     13515     13516     13509     13512     13515     13517
     13509     13512     13515     13518     13510     13509     13512     13513
     13510     13509     13512     13514     13510     13509     13512     13515
     13511     13509     13512     13513     13511     13509     13512     13514
     13511     13509     13512     13515     13513     13512     13515     13516
     13513     13512     13515     13517     13513     13512     13515     13518
     13514     13512     13515     13516     13514     13512     13515     13517
     13514     13512     13515     13518     13519     13522     13525     13526
     13519     13522     13525     13527     13519     13522     13525     13528
     13520     13519     13522     13523     13520     13519     13522     13524
     13520     13519     13522     13525     13521     13519     13522     13523
     13521     13519     13522     13524     13521     13519     13522     13525
     13522     13525     13528     13529     13522     13525     13528     13530
     13522     13525     13528     13531     13523     13522     13525     13526
     13523     13522     13525     13527     13523     13522     13525     13528
     13524     13522     13525     13526     13524     13522     13525     13527
     13524     13522     13525     13528     13525     13528     13531     13532
     13525     13528     13531     13533     13525     13528     13531     13534
     13526     13525     13528     13529     13526     13525     13528     13530
     13526     13525     13528     13531     13527     13525     13528     13529
     13527     13525     13528     13530     13527     13525     13528     13531
     13528     13531     13534     13535     13528     13531     13534     13536
     13528     13531     13534     13537     13529     13528     13531     13532
     13529     13528     13531     13533     13529     13528     13531     13534
     13530     13528     13531     13532     13530     13528     13531     13533
     13530     13528     13531     13534     13531     13534     13537     13538
     13531     13534     13537     13539     13531     13534     13537     13540
     13532     13531     13534     13535     13532     13531     13534     13536
     13532     13531     13534     13537     13533     13531     13534     13535
     13533     13531     13534     13536     13533     13531     13534     13537
     13534     13537     13540     13541     13534     13537     13540     13542
     13534     13537     13540     13543     13535     13534     13537     13538
     13535     13534     13537     13539     13535     13534     13537     13540
     13536     13534     13537     13538     13536     13534     13537     13539
     13536     13534     13537     13540     13537     13540     13543     13544
     13537     13540     13543     13545     13537     13540     13543     13546
     13538     13537     13540     13541     13538     13537     13540     13542
     13538     13537     13540     13543     13539     13537     13540     13541
     13539     13537     13540     13542     13539     13537     13540     13543
     13540     13543     13546     13547     13540     13543     13546     13548
     13540     13543     13546     13549     13541     13540     13543     13544
     13541     13540     13543     13545     13541     13540     13543     13546
     13542     13540     13543     13544     13542     13540     13543     13545
     13542     13540     13543     13546     13543     13546     13549     13550
     13543     13546     13549     13551     13543     13546     13549     13552
     13544     13543     13546     13547     13544     13543     13546     13548
     13544     13543     13546     13549     13545     13543     13546     13547
     13545     13543     13546     13548     13545     13543     13546     13549
     13546     13549     13552     13553     13546     13549     13552     13554
     13546     13549     13552     13555     13547     13546     13549     13550
     13547     13546     13549     13551     13547     13546     13549     13552
     13548     13546     13549     13550     13548     13546     13549     13551
     13548     13546     13549     13552     13549     13552     13555     13556
     13549     13552     13555     13557     13549     13552     13555     13558
     13550     13549     13552     13553     13550     13549     13552     13554
     13550     13549     13552     13555     13551     13549     13552     13553
     13551     13549     13552     13554     13551     13549     13552     13555
     13552     13555     13558     13559     13552     13555     13558     13560
     13552     13555     13558     13561     13553     13552     13555     13556
     13553     13552     13555     13557     13553     13552     13555     13558
     13554     13552     13555     13556     13554     13552     13555     13557
     13554     13552     13555     13558     13556     13555     13558     13559
     13556     13555     13558     13560     13556     13555     13558     13561
     13557     13555     13558     13559     13557     13555     13558     13560
     13557     13555     13558     13561     13562     13566     13569     13570
     13562     13566     13569     13571     13562     13566     13569     13576
     13563     13562     13566     13567     13563     13562     13566     13568
     13563     13562     13566     13569     13564     13562     13566     13567
     13564     13562     13566     13568     13564     13562     13566     13569
     13565     13562     13566     13567     13565     13562     13566     13568
     13565     13562     13566     13569     13566     13569     13576     13572
     13567     13566     13569     13570     13567     13566     13569     13571
     13567     13566     13569     13576     13568     13566     13569     13570
     13568     13566     13569     13571     13568     13566     13569     13576
     13569     13576     13572     13573     13569     13576     13572     13574
     13569     13576     13572     13575     13570     13569     13576     13572
     13571     13569     13576     13572     13572     13575     13577     13578
     13572     13575     13577     13579     13572     13575     13577     13580
     13573     13572     13575     13577     13574     13572     13575     13577
     13575     13577     13580     13581     13575     13577     13580     13582
     13575     13577     13580     13588     13576     13572     13575     13577
     13577     13580     13582     13583     13577     13580     13588     13589
     13577     13580     13588     13590     13577     13580     13588     13591
     13578     13577     13580     13581     13578     13577     13580     13582
     13578     13577     13580     13588     13579     13577     13580     13581
     13579     13577     13580     13582     13579     13577     13580     13588
     13580     13582     13583     13584     13580     13582     13583     13585
     13580     13588     13591     13592     13581     13580     13582     13583
     13581     13580     13588     13589     13581     13580     13588     13590
     13581     13580     13588     13591     13582     13580     13588     13589
     13582     13580     13588     13590     13582     13580     13588     13591
     13582     13583     13585     13586     13582     13583     13585     13587
     13582     13583     13585     13597     13583     13582     13580     13588
     13583     13585     13597     13598     13583     13585     13597     13599
     13583     13585     13597     13600     13584     13583     13585     13586
     13584     13583     13585     13587     13584     13583     13585     13597
     13585     13597     13600     13601     13585     13597     13600     13602
     13585     13597     13600     13603     13586     13585     13597     13598
     13586     13585     13597     13599     13586     13585     13597     13600
     13587     13585     13597     13598     13587     13585     13597     13599
     13587     13585     13597     13600     13588     13591     13592     13593
     13588     13591     13592     13594     13589     13588     13591     13592
     13590     13588     13591     13592     13591     13592     13594     13595
     13591     13592     13594     13596     13591     13592     13594     13641
     13592     13594     13641     13642     13592     13594     13641     13643
     13592     13594     13641     13644     13593     13592     13594     13595
     13593     13592     13594     13596     13593     13592     13594     13641
     13594     13641     13644     13645     13594     13641     13644     13646
     13594     13641     13644     13647     13595     13594     13641     13642
     13595     13594     13641     13643     13595     13594     13641     13644
     13596     13594     13641     13642     13596     13594     13641     13643
     13596     13594     13641     13644     13597     13600     13603     13604
     13597     13600     13603     13605     13597     13600     13603     13606
     13598     13597     13600     13601     13598     13597     13600     13602
     13598     13597     13600     13603     13599     13597     13600     13601
     13599     13597     13600     13602     13599     13597     13600     13603
     13600     13603     13606     13607     13600     13603     13606     13608
     13600     13603     13606     13609     13601     13600     13603     13604
     13601     13600     13603     13605     13601     13600     13603     13606
     13602     13600     13603     13604     13602     13600     13603     13605
     13602     13600     13603     13606     13603     13606     13609     13610
     13603     13606     13609     13611     13603     13606     13609     13612
     13604     13603     13606     13607     13604     13603     13606     13608
     13604     13603     13606     13609     13605     13603     13606     13607
     13605     13603     13606     13608     13605     13603     13606     13609
     13606     13609     13612     13613     13606     13609     13612     13614
     13606     13609     13612     13615     13607     13606     13609     13610
     13607     13606     13609     13611     13607     13606     13609     13612
     13608     13606     13609     13610     13608     13606     13609     13611
     13608     13606     13609     13612     13609     13612     13615     13616
     13609     13612     13615     13617     13609     13612     13615     13620
     13610     13609     13612     13613     13610     13609     13612     13614
     13610     13609     13612     13615     13611     13609     13612     13613
     13611     13609     13612     13614     13611     13609     13612     13615
     13612     13615     13617     13618     13612     13615     13617     13619
     13612     13615     13617     13620     13612     13615     13620     13617
     13612     13615     13620     13621     13612     13615     13620     13622
     13613     13612     13615     13616     13613     13612     13615     13617
     13613     13612     13615     13620     13614     13612     13615     13616
     13614     13612     13615     13617     13614     13612     13615     13620
     13615     13617     13620     13621     13615     13617     13620     13622
     13615     13620     13617     13618     13615     13620     13617     13619
     13615     13620     13622     13623     13615     13620     13622     13624
     13615     13620     13622     13625     13616     13615     13617     13618
     13616     13615     13617     13619     13616     13615     13617     13620
     13616     13615     13620     13617     13616     13615     13620     13621
     13616     13615     13620     13622     13617     13615     13620     13621
     13617     13615     13620     13622     13617     13620     13622     13623
     13617     13620     13622     13624     13617     13620     13622     13625
     13618     13617     13615     13620     13618     13617     13620     13621
     13618     13617     13620     13622     13619     13617     13615     13620
     13619     13617     13620     13621     13619     13617     13620     13622
     13620     13622     13625     13626     13620     13622     13625     13627
     13620     13622     13625     13628     13621     13620     13622     13623
     13621     13620     13622     13624     13621     13620     13622     13625
     13622     13625     13628     13629     13622     13625     13628     13630
     13622     13625     13628     13631     13623     13622     13625     13626
     13623     13622     13625     13627     13623     13622     13625     13628
     13624     13622     13625     13626     13624     13622     13625     13627
     13624     13622     13625     13628     13625     13628     13631     13632
     13625     13628     13631     13633     13625     13628     13631     13634
     13626     13625     13628     13629     13626     13625     13628     13630
     13626     13625     13628     13631     13627     13625     13628     13629
     13627     13625     13628     13630     13627     13625     13628     13631
     13628     13631     13634     13635     13628     13631     13634     13636
     13628     13631     13634     13637     13629     13628     13631     13632
     13629     13628     13631     13633     13629     13628     13631     13634
     13630     13628     13631     13632     13630     13628     13631     13633
     13630     13628     13631     13634     13631     13634     13637     13638
     13631     13634     13637     13639     13631     13634     13637     13640
     13632     13631     13634     13635     13632     13631     13634     13636
     13632     13631     13634     13637     13633     13631     13634     13635
     13633     13631     13634     13636     13633     13631     13634     13637
     13635     13634     13637     13638     13635     13634     13637     13639
     13635     13634     13637     13640     13636     13634     13637     13638
     13636     13634     13637     13639     13636     13634     13637     13640
     13641     13644     13647     13648     13641     13644     13647     13649
     13641     13644     13647     13650     13642     13641     13644     13645
     13642     13641     13644     13646     13642     13641     13644     13647
     13643     13641     13644     13645     13643     13641     13644     13646
     13643     13641     13644     13647     13644     13647     13650     13651
     13644     13647     13650     13652     13644     13647     13650     13653
     13645     13644     13647     13648     13645     13644     13647     13649
     13645     13644     13647     13650     13646     13644     13647     13648
     13646     13644     13647     13649     13646     13644     13647     13650
     13647     13650     13653     13654     13647     13650     13653     13655
     13647     13650     13653     13656     13648     13647     13650     13651
     13648     13647     13650     13652     13648     13647     13650     13653
     13649     13647     13650     13651     13649     13647     13650     13652
     13649     13647     13650     13653     13650     13653     13656     13657
     13650     13653     13656     13658     13650     13653     13656     13659
     13651     13650     13653     13654     13651     13650     13653     13655
     13651     13650     13653     13656     13652     13650     13653     13654
     13652     13650     13653     13655     13652     13650     13653     13656
     13653     13656     13659     13660     13653     13656     13659     13661
     13653     13656     13659     13662     13654     13653     13656     13657
     13654     13653     13656     13658     13654     13653     13656     13659
     13655     13653     13656     13657     13655     13653     13656     13658
     13655     13653     13656     13659     13656     13659     13662     13663
     13656     13659     13662     13664     13656     13659     13662     13665
     13657     13656     13659     13660     13657     13656     13659     13661
     13657     13656     13659     13662     13658     13656     13659     13660
     13658     13656     13659     13661     13658     13656     13659     13662
     13659     13662     13665     13666     13659     13662     13665     13667
     13659     13662     13665     13668     13660     13659     13662     13663
     13660     13659     13662     13664     13660     13659     13662     13665
     13661     13659     13662     13663     13661     13659     13662     13664
     13661     13659     13662     13665     13662     13665     13668     13669
     13662     13665     13668     13670     13662     13665     13668     13671
     13663     13662     13665     13666     13663     13662     13665     13667
     13663     13662     13665     13668     13664     13662     13665     13666
     13664     13662     13665     13667     13664     13662     13665     13668
     13665     13668     13671     13672     13665     13668     13671     13673
     13665     13668     13671     13674     13666     13665     13668     13669
     13666     13665     13668     13670     13666     13665     13668     13671
     13667     13665     13668     13669     13667     13665     13668     13670
     13667     13665     13668     13671     13668     13671     13674     13675
     13668     13671     13674     13676     13668     13671     13674     13677
     13669     13668     13671     13672     13669     13668     13671     13673
     13669     13668     13671     13674     13670     13668     13671     13672
     13670     13668     13671     13673     13670     13668     13671     13674
     13671     13674     13677     13678     13671     13674     13677     13679
     13671     13674     13677     13680     13672     13671     13674     13675
     13672     13671     13674     13676     13672     13671     13674     13677
     13673     13671     13674     13675     13673     13671     13674     13676
     13673     13671     13674     13677     13674     13677     13680     13681
     13674     13677     13680     13682     13674     13677     13680     13683
     13675     13674     13677     13678     13675     13674     13677     13679
     13675     13674     13677     13680     13676     13674     13677     13678
     13676     13674     13677     13679     13676     13674     13677     13680
     13678     13677     13680     13681     13678     13677     13680     13682
     13678     13677     13680     13683     13679     13677     13680     13681
     13679     13677     13680     13682     13679     13677     13680     13683
     13684     13688     13691     13692     13684     13688     13691     13693
     13684     13688     13691     13698     13685     13684     13688     13689
     13685     13684     13688     13690     13685     13684     13688     13691
     13686     13684     13688     13689     13686     13684     13688     13690
     13686     13684     13688     13691     13687     13684     13688     13689
     13687     13684     13688     13690     13687     13684     13688     13691
     13688     13691     13698     13694     13689     13688     13691     13692
     13689     13688     13691     13693     13689     13688     13691     13698
     13690     13688     13691     13692     13690     13688     13691     13693
     13690     13688     13691     13698     13691     13698     13694     13695
     13691     13698     13694     13696     13691     13698     13694     13697
     13692     13691     13698     13694     13693     13691     13698     13694
     13694     13697     13699     13700     13694     13697     13699     13701
     13694     13697     13699     13702     13695     13694     13697     13699
     13696     13694     13697     13699     13697     13699     13702     13703
     13697     13699     13702     13704     13697     13699     13702     13710
     13698     13694     13697     13699     13699     13702     13704     13705
     13699     13702     13710     13711     13699     13702     13710     13712
     13699     13702     13710     13713     13700     13699     13702     13703
     13700     13699     13702     13704     13700     13699     13702     13710
     13701     13699     13702     13703     13701     13699     13702     13704
     13701     13699     13702     13710     13702     13704     13705     13706
     13702     13704     13705     13707     13702     13710     13713     13714
     13703     13702     13704     13705     13703     13702     13710     13711
     13703     13702     13710     13712     13703     13702     13710     13713
     13704     13702     13710     13711     13704     13702     13710     13712
     13704     13702     13710     13713     13704     13705     13707     13708
     13704     13705     13707     13709     13704     13705     13707     13719
     13705     13704     13702     13710     13705     13707     13719     13720
     13705     13707     13719     13721     13705     13707     13719     13722
     13706     13705     13707     13708     13706     13705     13707     13709
     13706     13705     13707     13719     13707     13719     13722     13723
     13707     13719     13722     13724     13707     13719     13722     13725
     13708     13707     13719     13720     13708     13707     13719     13721
     13708     13707     13719     13722     13709     13707     13719     13720
     13709     13707     13719     13721     13709     13707     13719     13722
     13710     13713     13714     13715     13710     13713     13714     13716
     13711     13710     13713     13714     13712     13710     13713     13714
     13713     13714     13716     13717     13713     13714     13716     13718
     13713     13714     13716     13763     13714     13716     13763     13764
     13714     13716     13763     13765     13714     13716     13763     13766
     13715     13714     13716     13717     13715     13714     13716     13718
     13715     13714     13716     13763     13716     13763     13766     13767
     13716     13763     13766     13768     13716     13763     13766     13769
     13717     13716     13763     13764     13717     13716     13763     13765
     13717     13716     13763     13766     13718     13716     13763     13764
     13718     13716     13763     13765     13718     13716     13763     13766
     13719     13722     13725     13726     13719     13722     13725     13727
     13719     13722     13725     13728     13720     13719     13722     13723
     13720     13719     13722     13724     13720     13719     13722     13725
     13721     13719     13722     13723     13721     13719     13722     13724
     13721     13719     13722     13725     13722     13725     13728     13729
     13722     13725     13728     13730     13722     13725     13728     13731
     13723     13722     13725     13726     13723     13722     13725     13727
     13723     13722     13725     13728     13724     13722     13725     13726
     13724     13722     13725     13727     13724     13722     13725     13728
     13725     13728     13731     13732     13725     13728     13731     13733
     13725     13728     13731     13734     13726     13725     13728     13729
     13726     13725     13728     13730     13726     13725     13728     13731
     13727     13725     13728     13729     13727     13725     13728     13730
     13727     13725     13728     13731     13728     13731     13734     13735
     13728     13731     13734     13736     13728     13731     13734     13737
     13729     13728     13731     13732     13729     13728     13731     13733
     13729     13728     13731     13734     13730     13728     13731     13732
     13730     13728     13731     13733     13730     13728     13731     13734
     13731     13734     13737     13738     13731     13734     13737     13739
     13731     13734     13737     13742     13732     13731     13734     13735
     13732     13731     13734     13736     13732     13731     13734     13737
     13733     13731     13734     13735     13733     13731     13734     13736
     13733     13731     13734     13737     13734     13737     13739     13740
     13734     13737     13739     13741     13734     13737     13739     13742
     13734     13737     13742     13739     13734     13737     13742     13743
     13734     13737     13742     13744     13735     13734     13737     13738
     13735     13734     13737     13739     13735     13734     13737     13742
     13736     13734     13737     13738     13736     13734     13737     13739
     13736     13734     13737     13742     13737     13739     13742     13743
     13737     13739     13742     13744     13737     13742     13739     13740
     13737     13742     13739     13741     13737     13742     13744     13745
     13737     13742     13744     13746     13737     13742     13744     13747
     13738     13737     13739     13740     13738     13737     13739     13741
     13738     13737     13739     13742     13738     13737     13742     13739
     13738     13737     13742     13743     13738     13737     13742     13744
     13739     13737     13742     13743     13739     13737     13742     13744
     13739     13742     13744     13745     13739     13742     13744     13746
     13739     13742     13744     13747     13740     13739     13737     13742
     13740     13739     13742     13743     13740     13739     13742     13744
     13741     13739     13737     13742     13741     13739     13742     13743
     13741     13739     13742     13744     13742     13744     13747     13748
     13742     13744     13747     13749     13742     13744     13747     13750
     13743     13742     13744     13745     13743     13742     13744     13746
     13743     13742     13744     13747     13744     13747     13750     13751
     13744     13747     13750     13752     13744     13747     13750     13753
     13745     13744     13747     13748     13745     13744     13747     13749
     13745     13744     13747     13750     13746     13744     13747     13748
     13746     13744     13747     13749     13746     13744     13747     13750
     13747     13750     13753     13754     13747     13750     13753     13755
     13747     13750     13753     13756     13748     13747     13750     13751
     13748     13747     13750     13752     13748     13747     13750     13753
     13749     13747     13750     13751     13749     13747     13750     13752
     13749     13747     13750     13753     13750     13753     13756     13757
     13750     13753     13756     13758     13750     13753     13756     13759
     13751     13750     13753     13754     13751     13750     13753     13755
     13751     13750     13753     13756     13752     13750     13753     13754
     13752     13750     13753     13755     13752     13750     13753     13756
     13753     13756     13759     13760     13753     13756     13759     13761
     13753     13756     13759     13762     13754     13753     13756     13757
     13754     13753     13756     13758     13754     13753     13756     13759
     13755     13753     13756     13757     13755     13753     13756     13758
     13755     13753     13756     13759     13757     13756     13759     13760
     13757     13756     13759     13761     13757     13756     13759     13762
     13758     13756     13759     13760     13758     13756     13759     13761
     13758     13756     13759     13762     13763     13766     13769     13770
     13763     13766     13769     13771     13763     13766     13769     13772
     13764     13763     13766     13767     13764     13763     13766     13768
     13764     13763     13766     13769     13765     13763     13766     13767
     13765     13763     13766     13768     13765     13763     13766     13769
     13766     13769     13772     13773     13766     13769     13772     13774
     13766     13769     13772     13775     13767     13766     13769     13770
     13767     13766     13769     13771     13767     13766     13769     13772
     13768     13766     13769     13770     13768     13766     13769     13771
     13768     13766     13769     13772     13769     13772     13775     13776
     13769     13772     13775     13777     13769     13772     13775     13778
     13770     13769     13772     13773     13770     13769     13772     13774
     13770     13769     13772     13775     13771     13769     13772     13773
     13771     13769     13772     13774     13771     13769     13772     13775
     13772     13775     13778     13779     13772     13775     13778     13780
     13772     13775     13778     13781     13773     13772     13775     13776
     13773     13772     13775     13777     13773     13772     13775     13778
     13774     13772     13775     13776     13774     13772     13775     13777
     13774     13772     13775     13778     13775     13778     13781     13782
     13775     13778     13781     13783     13775     13778     13781     13784
     13776     13775     13778     13779     13776     13775     13778     13780
     13776     13775     13778     13781     13777     13775     13778     13779
     13777     13775     13778     13780     13777     13775     13778     13781
     13778     13781     13784     13785     13778     13781     13784     13786
     13778     13781     13784     13787     13779     13778     13781     13782
     13779     13778     13781     13783     13779     13778     13781     13784
     13780     13778     13781     13782     13780     13778     13781     13783
     13780     13778     13781     13784     13781     13784     13787     13788
     13781     13784     13787     13789     13781     13784     13787     13790
     13782     13781     13784     13785     13782     13781     13784     13786
     13782     13781     13784     13787     13783     13781     13784     13785
     13783     13781     13784     13786     13783     13781     13784     13787
     13784     13787     13790     13791     13784     13787     13790     13792
     13784     13787     13790     13793     13785     13784     13787     13788
     13785     13784     13787     13789     13785     13784     13787     13790
     13786     13784     13787     13788     13786     13784     13787     13789
     13786     13784     13787     13790     13787     13790     13793     13794
     13787     13790     13793     13795     13787     13790     13793     13796
     13788     13787     13790     13791     13788     13787     13790     13792
     13788     13787     13790     13793     13789     13787     13790     13791
     13789     13787     13790     13792     13789     13787     13790     13793
     13790     13793     13796     13797     13790     13793     13796     13798
     13790     13793     13796     13799     13791     13790     13793     13794
     13791     13790     13793     13795     13791     13790     13793     13796
     13792     13790     13793     13794     13792     13790     13793     13795
     13792     13790     13793     13796     13793     13796     13799     13800
     13793     13796     13799     13801     13793     13796     13799     13802
     13794     13793     13796     13797     13794     13793     13796     13798
     13794     13793     13796     13799     13795     13793     13796     13797
     13795     13793     13796     13798     13795     13793     13796     13799
     13796     13799     13802     13803     13796     13799     13802     13804
     13796     13799     13802     13805     13797     13796     13799     13800
     13797     13796     13799     13801     13797     13796     13799     13802
     13798     13796     13799     13800     13798     13796     13799     13801
     13798     13796     13799     13802     13800     13799     13802     13803
     13800     13799     13802     13804     13800     13799     13802     13805
     13801     13799     13802     13803     13801     13799     13802     13804
     13801     13799     13802     13805     13806     13811     13813     13814
     13806     13811     13815     13816     13806     13811     13815     13817
     13806     13811     13815     13822     13807     13806     13809     13810
     13807     13806     13811     13812     13807     13806     13811     13813
     13807     13806     13811     13815     13808     13806     13809     13810
     13808     13806     13811     13812     13808     13806     13811     13813
     13808     13806     13811     13815     13809     13806     13811     13812
     13809     13806     13811     13813     13809     13806     13811     13815
     13810     13809     13806     13811     13811     13815     13822     13818
     13812     13811     13813     13814     13812     13811     13815     13816
     13812     13811     13815     13817     13812     13811     13815     13822
     13813     13811     13815     13816     13813     13811     13815     13817
     13813     13811     13815     13822     13814     13813     13811     13815
     13815     13822     13818     13819     13815     13822     13818     13820
     13815     13822     13818     13821     13816     13815     13822     13818
     13817     13815     13822     13818     13818     13821     13823     13824
     13818     13821     13823     13825     13818     13821     13823     13826
     13819     13818     13821     13823     13820     13818     13821     13823
     13821     13823     13826     13827     13821     13823     13826     13828
     13821     13823     13826     13834     13822     13818     13821     13823
     13823     13826     13828     13829     13823     13826     13834     13835
     13823     13826     13834     13836     13823     13826     13834     13837
     13824     13823     13826     13827     13824     13823     13826     13828
     13824     13823     13826     13834     13825     13823     13826     13827
     13825     13823     13826     13828     13825     13823     13826     13834
     13826     13828     13829     13830     13826     13828     13829     13831
     13826     13834     13837     13838     13827     13826     13828     13829
     13827     13826     13834     13835     13827     13826     13834     13836
     13827     13826     13834     13837     13828     13826     13834     13835
     13828     13826     13834     13836     13828     13826     13834     13837
     13828     13829     13831     13832     13828     13829     13831     13833
     13828     13829     13831     13843     13829     13828     13826     13834
     13829     13831     13843     13844     13829     13831     13843     13845
     13829     13831     13843     13846     13830     13829     13831     13832
     13830     13829     13831     13833     13830     13829     13831     13843
     13831     13843     13846     13847     13831     13843     13846     13848
     13831     13843     13846     13849     13832     13831     13843     13844
     13832     13831     13843     13845     13832     13831     13843     13846
     13833     13831     13843     13844     13833     13831     13843     13845
     13833     13831     13843     13846     13834     13837     13838     13839
     13834     13837     13838     13840     13835     13834     13837     13838
     13836     13834     13837     13838     13837     13838     13840     13841
     13837     13838     13840     13842     13837     13838     13840     13884
     13838     13840     13884     13885     13838     13840     13884     13886
     13838     13840     13884     13887     13839     13838     13840     13841
     13839     13838     13840     13842     13839     13838     13840     13884
     13840     13884     13887     13888     13840     13884     13887     13889
     13840     13884     13887     13890     13841     13840     13884     13885
     13841     13840     13884     13886     13841     13840     13884     13887
     13842     13840     13884     13885     13842     13840     13884     13886
     13842     13840     13884     13887     13843     13846     13849     13850
     13843     13846     13849     13851     13843     13846     13849     13852
     13844     13843     13846     13847     13844     13843     13846     13848
     13844     13843     13846     13849     13845     13843     13846     13847
     13845     13843     13846     13848     13845     13843     13846     13849
     13846     13849     13852     13853     13846     13849     13852     13854
     13846     13849     13852     13855     13847     13846     13849     13850
     13847     13846     13849     13851     13847     13846     13849     13852
     13848     13846     13849     13850     13848     13846     13849     13851
     13848     13846     13849     13852     13849     13852     13855     13856
     13849     13852     13855     13857     13849     13852     13855     13858
     13850     13849     13852     13853     13850     13849     13852     13854
     13850     13849     13852     13855     13851     13849     13852     13853
     13851     13849     13852     13854     13851     13849     13852     13855
     13852     13855     13858     13859     13852     13855     13858     13860
     13852     13855     13858     13861     13853     13852     13855     13856
     13853     13852     13855     13857     13853     13852     13855     13858
     13854     13852     13855     13856     13854     13852     13855     13857
     13854     13852     13855     13858     13855     13858     13861     13862
     13855     13858     13861     13863     13856     13855     13858     13859
     13856     13855     13858     13860     13856     13855     13858     13861
     13857     13855     13858     13859     13857     13855     13858     13860
     13857     13855     13858     13861     13858     13861     13863     13864
     13858     13861     13863     13865     13859     13858     13861     13862
     13859     13858     13861     13863     13860     13858     13861     13862
     13860     13858     13861     13863     13861     13863     13865     13866
     13861     13863     13865     13867     13861     13863     13865     13868
     13862     13861     13863     13864     13862     13861     13863     13865
     13863     13865     13868     13869     13863     13865     13868     13870
     13863     13865     13868     13871     13864     13863     13865     13866
     13864     13863     13865     13867     13864     13863     13865     13868
     13865     13868     13871     13872     13865     13868     13871     13873
     13865     13868     13871     13874     13866     13865     13868     13869
     13866     13865     13868     13870     13866     13865     13868     13871
     13867     13865     13868     13869     13867     13865     13868     13870
     13867     13865     13868     13871     13868     13871     13874     13875
     13868     13871     13874     13876     13868     13871     13874     13877
     13869     13868     13871     13872     13869     13868     13871     13873
     13869     13868     13871     13874     13870     13868     13871     13872
     13870     13868     13871     13873     13870     13868     13871     13874
     13871     13874     13877     13878     13871     13874     13877     13879
     13871     13874     13877     13880     13872     13871     13874     13875
     13872     13871     13874     13876     13872     13871     13874     13877
     13873     13871     13874     13875     13873     13871     13874     13876
     13873     13871     13874     13877     13874     13877     13880     13881
     13874     13877     13880     13882     13874     13877     13880     13883
     13875     13874     13877     13878     13875     13874     13877     13879
     13875     13874     13877     13880     13876     13874     13877     13878
     13876     13874     13877     13879     13876     13874     13877     13880
     13878     13877     13880     13881     13878     13877     13880     13882
     13878     13877     13880     13883     13879     13877     13880     13881
     13879     13877     13880     13882     13879     13877     13880     13883
     13884     13887     13890     13891     13884     13887     13890     13892
     13884     13887     13890     13893     13885     13884     13887     13888
     13885     13884     13887     13889     13885     13884     13887     13890
     13886     13884     13887     13888     13886     13884     13887     13889
     13886     13884     13887     13890     13887     13890     13893     13894
     13887     13890     13893     13895     13887     13890     13893     13896
     13888     13887     13890     13891     13888     13887     13890     13892
     13888     13887     13890     13893     13889     13887     13890     13891
     13889     13887     13890     13892     13889     13887     13890     13893
     13890     13893     13896     13897     13890     13893     13896     13898
     13890     13893     13896     13899     13891     13890     13893     13894
     13891     13890     13893     13895     13891     13890     13893     13896
     13892     13890     13893     13894     13892     13890     13893     13895
     13892     13890     13893     13896     13893     13896     13899     13900
     13893     13896     13899     13901     13893     13896     13899     13902
     13894     13893     13896     13897     13894     13893     13896     13898
     13894     13893     13896     13899     13895     13893     13896     13897
     13895     13893     13896     13898     13895     13893     13896     13899
     13896     13899     13902     13903     13896     13899     13902     13904
     13896     13899     13902     13905     13897     13896     13899     13900
     13897     13896     13899     13901     13897     13896     13899     13902
     13898     13896     13899     13900     13898     13896     13899     13901
     13898     13896     13899     13902     13899     13902     13905     13906
     13899     13902     13905     13907     13899     13902     13905     13908
     13900     13899     13902     13903     13900     13899     13902     13904
     13900     13899     13902     13905     13901     13899     13902     13903
     13901     13899     13902     13904     13901     13899     13902     13905
     13902     13905     13908     13909     13902     13905     13908     13910
     13902     13905     13908     13911     13903     13902     13905     13906
     13903     13902     13905     13907     13903     13902     13905     13908
     13904     13902     13905     13906     13904     13902     13905     13907
     13904     13902     13905     13908     13905     13908     13911     13912
     13905     13908     13911     13913     13905     13908     13911     13914
     13906     13905     13908     13909     13906     13905     13908     13910
     13906     13905     13908     13911     13907     13905     13908     13909
     13907     13905     13908     13910     13907     13905     13908     13911
     13908     13911     13914     13915     13908     13911     13914     13916
     13908     13911     13914     13917     13909     13908     13911     13912
     13909     13908     13911     13913     13909     13908     13911     13914
     13910     13908     13911     13912     13910     13908     13911     13913
     13910     13908     13911     13914     13911     13914     13917     13918
     13911     13914     13917     13919     13911     13914     13917     13920
     13912     13911     13914     13915     13912     13911     13914     13916
     13912     13911     13914     13917     13913     13911     13914     13915
     13913     13911     13914     13916     13913     13911     13914     13917
     13914     13917     13920     13921     13914     13917     13920     13922
     13914     13917     13920     13923     13915     13914     13917     13918
     13915     13914     13917     13919     13915     13914     13917     13920
     13916     13914     13917     13918     13916     13914     13917     13919
     13916     13914     13917     13920     13917     13920     13923     13924
     13917     13920     13923     13925     13917     13920     13923     13926
     13918     13917     13920     13921     13918     13917     13920     13922
     13918     13917     13920     13923     13919     13917     13920     13921
     13919     13917     13920     13922     13919     13917     13920     13923
     13921     13920     13923     13924     13921     13920     13923     13925
     13921     13920     13923     13926     13922     13920     13923     13924
     13922     13920     13923     13925     13922     13920     13923     13926
     13927     13931     13934     13935     13927     13931     13934     13936
     13927     13931     13934     13941     13928     13927     13931     13932
     13928     13927     13931     13933     13928     13927     13931     13934
     13929     13927     13931     13932     13929     13927     13931     13933
     13929     13927     13931     13934     13930     13927     13931     13932
     13930     13927     13931     13933     13930     13927     13931     13934
     13931     13934     13941     13937     13932     13931     13934     13935
     13932     13931     13934     13936     13932     13931     13934     13941
     13933     13931     13934     13935     13933     13931     13934     13936
     13933     13931     13934     13941     13934     13941     13937     13938
     13934     13941     13937     13939     13934     13941     13937     13940
     13935     13934     13941     13937     13936     13934     13941     13937
     13937     13940     13942     13943     13937     13940     13942     13944
     13937     13940     13942     13945     13938     13937     13940     13942
     13939     13937     13940     13942     13940     13942     13945     13946
     13940     13942     13945     13947     13940     13942     13945     13953
     13941     13937     13940     13942     13942     13945     13947     13948
     13942     13945     13953     13954     13942     13945     13953     13955
     13942     13945     13953     13956     13943     13942     13945     13946
     13943     13942     13945     13947     13943     13942     13945     13953
     13944     13942     13945     13946     13944     13942     13945     13947
     13944     13942     13945     13953     13945     13947     13948     13949
     13945     13947     13948     13950     13945     13953     13956     13957
     13946     13945     13947     13948     13946     13945     13953     13954
     13946     13945     13953     13955     13946     13945     13953     13956
     13947     13945     13953     13954     13947     13945     13953     13955
     13947     13945     13953     13956     13947     13948     13950     13951
     13947     13948     13950     13952     13947     13948     13950     13962
     13948     13947     13945     13953     13948     13950     13962     13963
     13948     13950     13962     13964     13948     13950     13962     13965
     13949     13948     13950     13951     13949     13948     13950     13952
     13949     13948     13950     13962     13950     13962     13965     13966
     13950     13962     13965     13967     13950     13962     13965     13968
     13951     13950     13962     13963     13951     13950     13962     13964
     13951     13950     13962     13965     13952     13950     13962     13963
     13952     13950     13962     13964     13952     13950     13962     13965
     13953     13956     13957     13958     13953     13956     13957     13959
     13954     13953     13956     13957     13955     13953     13956     13957
     13956     13957     13959     13960     13956     13957     13959     13961
     13956     13957     13959     14006     13957     13959     14006     14007
     13957     13959     14006     14008     13957     13959     14006     14009
     13958     13957     13959     13960     13958     13957     13959     13961
     13958     13957     13959     14006     13959     14006     14009     14010
     13959     14006     14009     14011     13959     14006     14009     14012
     13960     13959     14006     14007     13960     13959     14006     14008
     13960     13959     14006     14009     13961     13959     14006     14007
     13961     13959     14006     14008     13961     13959     14006     14009
     13962     13965     13968     13969     13962     13965     13968     13970
     13962     13965     13968     13971     13963     13962     13965     13966
     13963     13962     13965     13967     13963     13962     13965     13968
     13964     13962     13965     13966     13964     13962     13965     13967
     13964     13962     13965     13968     13965     13968     13971     13972
     13965     13968     13971     13973     13965     13968     13971     13974
     13966     13965     13968     13969     13966     13965     13968     13970
     13966     13965     13968     13971     13967     13965     13968     13969
     13967     13965     13968     13970     13967     13965     13968     13971
     13968     13971     13974     13975     13968     13971     13974     13976
     13968     13971     13974     13977     13969     13968     13971     13972
     13969     13968     13971     13973     13969     13968     13971     13974
     13970     13968     13971     13972     13970     13968     13971     13973
     13970     13968     13971     13974     13971     13974     13977     13978
     13971     13974     13977     13979     13971     13974     13977     13980
     13972     13971     13974     13975     13972     13971     13974     13976
     13972     13971     13974     13977     13973     13971     13974     13975
     13973     13971     13974     13976     13973     13971     13974     13977
     13974     13977     13980     13981     13974     13977     13980     13982
     13974     13977     13980     13985     13975     13974     13977     13978
     13975     13974     13977     13979     13975     13974     13977     13980
     13976     13974     13977     13978     13976     13974     13977     13979
     13976     13974     13977     13980     13977     13980     13982     13983
     13977     13980     13982     13984     13977     13980     13982     13985
     13977     13980     13985     13982     13977     13980     13985     13986
     13977     13980     13985     13987     13978     13977     13980     13981
     13978     13977     13980     13982     13978     13977     13980     13985
     13979     13977     13980     13981     13979     13977     13980     13982
     13979     13977     13980     13985     13980     13982     13985     13986
     13980     13982     13985     13987     13980     13985     13982     13983
     13980     13985     13982     13984     13980     13985     13987     13988
     13980     13985     13987     13989     13980     13985     13987     13990
     13981     13980     13982     13983     13981     13980     13982     13984
     13981     13980     13982     13985     13981     13980     13985     13982
     13981     13980     13985     13986     13981     13980     13985     13987
     13982     13980     13985     13986     13982     13980     13985     13987
     13982     13985     13987     13988     13982     13985     13987     13989
     13982     13985     13987     13990     13983     13982     13980     13985
     13983     13982     13985     13986     13983     13982     13985     13987
     13984     13982     13980     13985     13984     13982     13985     13986
     13984     13982     13985     13987     13985     13987     13990     13991
     13985     13987     13990     13992     13985     13987     13990     13993
     13986     13985     13987     13988     13986     13985     13987     13989
     13986     13985     13987     13990     13987     13990     13993     13994
     13987     13990     13993     13995     13987     13990     13993     13996
     13988     13987     13990     13991     13988     13987     13990     13992
     13988     13987     13990     13993     13989     13987     13990     13991
     13989     13987     13990     13992     13989     13987     13990     13993
     13990     13993     13996     13997     13990     13993     13996     13998
     13990     13993     13996     13999     13991     13990     13993     13994
     13991     13990     13993     13995     13991     13990     13993     13996
     13992     13990     13993     13994     13992     13990     13993     13995
     13992     13990     13993     13996     13993     13996     13999     14000
     13993     13996     13999     14001     13993     13996     13999     14002
     13994     13993     13996     13997     13994     13993     13996     13998
     13994     13993     13996     13999     13995     13993     13996     13997
     13995     13993     13996     13998     13995     13993     13996     13999
     13996     13999     14002     14003     13996     13999     14002     14004
     13996     13999     14002     14005     13997     13996     13999     14000
     13997     13996     13999     14001     13997     13996     13999     14002
     13998     13996     13999     14000     13998     13996     13999     14001
     13998     13996     13999     14002     14000     13999     14002     14003
     14000     13999     14002     14004     14000     13999     14002     14005
     14001     13999     14002     14003     14001     13999     14002     14004
     14001     13999     14002     14005     14006     14009     14012     14013
     14006     14009     14012     14014     14006     14009     14012     14015
     14007     14006     14009     14010     14007     14006     14009     14011
     14007     14006     14009     14012     14008     14006     14009     14010
     14008     14006     14009     14011     14008     14006     14009     14012
     14009     14012     14015     14016     14009     14012     14015     14017
     14009     14012     14015     14018     14010     14009     14012     14013
     14010     14009     14012     14014     14010     14009     14012     14015
     14011     14009     14012     14013     14011     14009     14012     14014
     14011     14009     14012     14015     14012     14015     14018     14019
     14012     14015     14018     14020     14012     14015     14018     14021
     14013     14012     14015     14016     14013     14012     14015     14017
     14013     14012     14015     14018     14014     14012     14015     14016
     14014     14012     14015     14017     14014     14012     14015     14018
     14015     14018     14021     14022     14015     14018     14021     14023
     14015     14018     14021     14024     14016     14015     14018     14019
     14016     14015     14018     14020     14016     14015     14018     14021
     14017     14015     14018     14019     14017     14015     14018     14020
     14017     14015     14018     14021     14018     14021     14024     14025
     14018     14021     14024     14026     14018     14021     14024     14027
     14019     14018     14021     14022     14019     14018     14021     14023
     14019     14018     14021     14024     14020     14018     14021     14022
     14020     14018     14021     14023     14020     14018     14021     14024
     14021     14024     14027     14028     14021     14024     14027     14029
     14021     14024     14027     14030     14022     14021     14024     14025
     14022     14021     14024     14026     14022     14021     14024     14027
     14023     14021     14024     14025     14023     14021     14024     14026
     14023     14021     14024     14027     14024     14027     14030     14031
     14024     14027     14030     14032     14024     14027     14030     14033
     14025     14024     14027     14028     14025     14024     14027     14029
     14025     14024     14027     14030     14026     14024     14027     14028
     14026     14024     14027     14029     14026     14024     14027     14030
     14027     14030     14033     14034     14027     14030     14033     14035
     14027     14030     14033     14036     14028     14027     14030     14031
     14028     14027     14030     14032     14028     14027     14030     14033
     14029     14027     14030     14031     14029     14027     14030     14032
     14029     14027     14030     14033     14030     14033     14036     14037
     14030     14033     14036     14038     14030     14033     14036     14039
     14031     14030     14033     14034     14031     14030     14033     14035
     14031     14030     14033     14036     14032     14030     14033     14034
     14032     14030     14033     14035     14032     14030     14033     14036
     14033     14036     14039     14040     14033     14036     14039     14041
     14033     14036     14039     14042     14034     14033     14036     14037
     14034     14033     14036     14038     14034     14033     14036     14039
     14035     14033     14036     14037     14035     14033     14036     14038
     14035     14033     14036     14039     14036     14039     14042     14043
     14036     14039     14042     14044     14036     14039     14042     14045
     14037     14036     14039     14040     14037     14036     14039     14041
     14037     14036     14039     14042     14038     14036     14039     14040
     14038     14036     14039     14041     14038     14036     14039     14042
     14039     14042     14045     14046     14039     14042     14045     14047
     14039     14042     14045     14048     14040     14039     14042     14043
     14040     14039     14042     14044     14040     14039     14042     14045
     14041     14039     14042     14043     14041     14039     14042     14044
     14041     14039     14042     14045     14043     14042     14045     14046
     14043     14042     14045     14047     14043     14042     14045     14048
     14044     14042     14045     14046     14044     14042     14045     14047
     14044     14042     14045     14048     14049     14053     14056     14057
     14049     14053     14056     14058     14049     14053     14056     14063
     14050     14049     14053     14054     14050     14049     14053     14055
     14050     14049     14053     14056     14051     14049     14053     14054
     14051     14049     14053     14055     14051     14049     14053     14056
     14052     14049     14053     14054     14052     14049     14053     14055
     14052     14049     14053     14056     14053     14056     14063     14059
     14054     14053     14056     14057     14054     14053     14056     14058
     14054     14053     14056     14063     14055     14053     14056     14057
     14055     14053     14056     14058     14055     14053     14056     14063
     14056     14063     14059     14060     14056     14063     14059     14061
     14056     14063     14059     14062     14057     14056     14063     14059
     14058     14056     14063     14059     14059     14062     14064     14065
     14059     14062     14064     14066     14059     14062     14064     14067
     14060     14059     14062     14064     14061     14059     14062     14064
     14062     14064     14067     14068     14062     14064     14067     14069
     14062     14064     14067     14075     14063     14059     14062     14064
     14064     14067     14069     14070     14064     14067     14075     14076
     14064     14067     14075     14077     14064     14067     14075     14078
     14065     14064     14067     14068     14065     14064     14067     14069
     14065     14064     14067     14075     14066     14064     14067     14068
     14066     14064     14067     14069     14066     14064     14067     14075
     14067     14069     14070     14071     14067     14069     14070     14072
     14067     14075     14078     14079     14068     14067     14069     14070
     14068     14067     14075     14076     14068     14067     14075     14077
     14068     14067     14075     14078     14069     14067     14075     14076
     14069     14067     14075     14077     14069     14067     14075     14078
     14069     14070     14072     14073     14069     14070     14072     14074
     14069     14070     14072     14084     14070     14069     14067     14075
     14070     14072     14084     14085     14070     14072     14084     14086
     14070     14072     14084     14087     14071     14070     14072     14073
     14071     14070     14072     14074     14071     14070     14072     14084
     14072     14084     14087     14088     14072     14084     14087     14089
     14072     14084     14087     14090     14073     14072     14084     14085
     14073     14072     14084     14086     14073     14072     14084     14087
     14074     14072     14084     14085     14074     14072     14084     14086
     14074     14072     14084     14087     14075     14078     14079     14080
     14075     14078     14079     14081     14076     14075     14078     14079
     14077     14075     14078     14079     14078     14079     14081     14082
     14078     14079     14081     14083     14078     14079     14081     14128
     14079     14081     14128     14129     14079     14081     14128     14130
     14079     14081     14128     14131     14080     14079     14081     14082
     14080     14079     14081     14083     14080     14079     14081     14128
     14081     14128     14131     14132     14081     14128     14131     14133
     14081     14128     14131     14134     14082     14081     14128     14129
     14082     14081     14128     14130     14082     14081     14128     14131
     14083     14081     14128     14129     14083     14081     14128     14130
     14083     14081     14128     14131     14084     14087     14090     14091
     14084     14087     14090     14092     14084     14087     14090     14093
     14085     14084     14087     14088     14085     14084     14087     14089
     14085     14084     14087     14090     14086     14084     14087     14088
     14086     14084     14087     14089     14086     14084     14087     14090
     14087     14090     14093     14094     14087     14090     14093     14095
     14087     14090     14093     14096     14088     14087     14090     14091
     14088     14087     14090     14092     14088     14087     14090     14093
     14089     14087     14090     14091     14089     14087     14090     14092
     14089     14087     14090     14093     14090     14093     14096     14097
     14090     14093     14096     14098     14090     14093     14096     14099
     14091     14090     14093     14094     14091     14090     14093     14095
     14091     14090     14093     14096     14092     14090     14093     14094
     14092     14090     14093     14095     14092     14090     14093     14096
     14093     14096     14099     14100     14093     14096     14099     14101
     14093     14096     14099     14102     14094     14093     14096     14097
     14094     14093     14096     14098     14094     14093     14096     14099
     14095     14093     14096     14097     14095     14093     14096     14098
     14095     14093     14096     14099     14096     14099     14102     14103
     14096     14099     14102     14104     14096     14099     14102     14107
     14097     14096     14099     14100     14097     14096     14099     14101
     14097     14096     14099     14102     14098     14096     14099     14100
     14098     14096     14099     14101     14098     14096     14099     14102
     14099     14102     14104     14105     14099     14102     14104     14106
     14099     14102     14104     14107     14099     14102     14107     14104
     14099     14102     14107     14108     14099     14102     14107     14109
     14100     14099     14102     14103     14100     14099     14102     14104
     14100     14099     14102     14107     14101     14099     14102     14103
     14101     14099     14102     14104     14101     14099     14102     14107
     14102     14104     14107     14108     14102     14104     14107     14109
     14102     14107     14104     14105     14102     14107     14104     14106
     14102     14107     14109     14110     14102     14107     14109     14111
     14102     14107     14109     14112     14103     14102     14104     14105
     14103     14102     14104     14106     14103     14102     14104     14107
     14103     14102     14107     14104     14103     14102     14107     14108
     14103     14102     14107     14109     14104     14102     14107     14108
     14104     14102     14107     14109     14104     14107     14109     14110
     14104     14107     14109     14111     14104     14107     14109     14112
     14105     14104     14102     14107     14105     14104     14107     14108
     14105     14104     14107     14109     14106     14104     14102     14107
     14106     14104     14107     14108     14106     14104     14107     14109
     14107     14109     14112     14113     14107     14109     14112     14114
     14107     14109     14112     14115     14108     14107     14109     14110
     14108     14107     14109     14111     14108     14107     14109     14112
     14109     14112     14115     14116     14109     14112     14115     14117
     14109     14112     14115     14118     14110     14109     14112     14113
     14110     14109     14112     14114     14110     14109     14112     14115
     14111     14109     14112     14113     14111     14109     14112     14114
     14111     14109     14112     14115     14112     14115     14118     14119
     14112     14115     14118     14120     14112     14115     14118     14121
     14113     14112     14115     14116     14113     14112     14115     14117
     14113     14112     14115     14118     14114     14112     14115     14116
     14114     14112     14115     14117     14114     14112     14115     14118
     14115     14118     14121     14122     14115     14118     14121     14123
     14115     14118     14121     14124     14116     14115     14118     14119
     14116     14115     14118     14120     14116     14115     14118     14121
     14117     14115     14118     14119     14117     14115     14118     14120
     14117     14115     14118     14121     14118     14121     14124     14125
     14118     14121     14124     14126     14118     14121     14124     14127
     14119     14118     14121     14122     14119     14118     14121     14123
     14119     14118     14121     14124     14120     14118     14121     14122
     14120     14118     14121     14123     14120     14118     14121     14124
     14122     14121     14124     14125     14122     14121     14124     14126
     14122     14121     14124     14127     14123     14121     14124     14125
     14123     14121     14124     14126     14123     14121     14124     14127
     14128     14131     14134     14135     14128     14131     14134     14136
     14128     14131     14134     14137     14129     14128     14131     14132
     14129     14128     14131     14133     14129     14128     14131     14134
     14130     14128     14131     14132     14130     14128     14131     14133
     14130     14128     14131     14134     14131     14134     14137     14138
     14131     14134     14137     14139     14131     14134     14137     14140
     14132     14131     14134     14135     14132     14131     14134     14136
     14132     14131     14134     14137     14133     14131     14134     14135
     14133     14131     14134     14136     14133     14131     14134     14137
     14134     14137     14140     14141     14134     14137     14140     14142
     14134     14137     14140     14143     14135     14134     14137     14138
     14135     14134     14137     14139     14135     14134     14137     14140
     14136     14134     14137     14138     14136     14134     14137     14139
     14136     14134     14137     14140     14137     14140     14143     14144
     14137     14140     14143     14145     14137     14140     14143     14146
     14138     14137     14140     14141     14138     14137     14140     14142
     14138     14137     14140     14143     14139     14137     14140     14141
     14139     14137     14140     14142     14139     14137     14140     14143
     14140     14143     14146     14147     14140     14143     14146     14148
     14140     14143     14146     14149     14141     14140     14143     14144
     14141     14140     14143     14145     14141     14140     14143     14146
     14142     14140     14143     14144     14142     14140     14143     14145
     14142     14140     14143     14146     14143     14146     14149     14150
     14143     14146     14149     14151     14143     14146     14149     14152
     14144     14143     14146     14147     14144     14143     14146     14148
     14144     14143     14146     14149     14145     14143     14146     14147
     14145     14143     14146     14148     14145     14143     14146     14149
     14146     14149     14152     14153     14146     14149     14152     14154
     14146     14149     14152     14155     14147     14146     14149     14150
     14147     14146     14149     14151     14147     14146     14149     14152
     14148     14146     14149     14150     14148     14146     14149     14151
     14148     14146     14149     14152     14149     14152     14155     14156
     14149     14152     14155     14157     14149     14152     14155     14158
     14150     14149     14152     14153     14150     14149     14152     14154
     14150     14149     14152     14155     14151     14149     14152     14153
     14151     14149     14152     14154     14151     14149     14152     14155
     14152     14155     14158     14159     14152     14155     14158     14160
     14152     14155     14158     14161     14153     14152     14155     14156
     14153     14152     14155     14157     14153     14152     14155     14158
     14154     14152     14155     14156     14154     14152     14155     14157
     14154     14152     14155     14158     14155     14158     14161     14162
     14155     14158     14161     14163     14155     14158     14161     14164
     14156     14155     14158     14159     14156     14155     14158     14160
     14156     14155     14158     14161     14157     14155     14158     14159
     14157     14155     14158     14160     14157     14155     14158     14161
     14158     14161     14164     14165     14158     14161     14164     14166
     14158     14161     14164     14167     14159     14158     14161     14162
     14159     14158     14161     14163     14159     14158     14161     14164
     14160     14158     14161     14162     14160     14158     14161     14163
     14160     14158     14161     14164     14161     14164     14167     14168
     14161     14164     14167     14169     14161     14164     14167     14170
     14162     14161     14164     14165     14162     14161     14164     14166
     14162     14161     14164     14167     14163     14161     14164     14165
     14163     14161     14164     14166     14163     14161     14164     14167
     14165     14164     14167     14168     14165     14164     14167     14169
     14165     14164     14167     14170     14166     14164     14167     14168
     14166     14164     14167     14169     14166     14164     14167     14170
     14171     14175     14178     14179     14171     14175     14178     14180
     14171     14175     14178     14185     14172     14171     14175     14176
     14172     14171     14175     14177     14172     14171     14175     14178
     14173     14171     14175     14176     14173     14171     14175     14177
     14173     14171     14175     14178     14174     14171     14175     14176
     14174     14171     14175     14177     14174     14171     14175     14178
     14175     14178     14185     14181     14176     14175     14178     14179
     14176     14175     14178     14180     14176     14175     14178     14185
     14177     14175     14178     14179     14177     14175     14178     14180
     14177     14175     14178     14185     14178     14185     14181     14182
     14178     14185     14181     14183     14178     14185     14181     14184
     14179     14178     14185     14181     14180     14178     14185     14181
     14181     14184     14186     14187     14181     14184     14186     14188
     14181     14184     14186     14189     14182     14181     14184     14186
     14183     14181     14184     14186     14184     14186     14189     14190
     14184     14186     14189     14191     14184     14186     14189     14197
     14185     14181     14184     14186     14186     14189     14191     14192
     14186     14189     14197     14198     14186     14189     14197     14199
     14186     14189     14197     14200     14187     14186     14189     14190
     14187     14186     14189     14191     14187     14186     14189     14197
     14188     14186     14189     14190     14188     14186     14189     14191
     14188     14186     14189     14197     14189     14191     14192     14193
     14189     14191     14192     14194     14189     14197     14200     14201
     14190     14189     14191     14192     14190     14189     14197     14198
     14190     14189     14197     14199     14190     14189     14197     14200
     14191     14189     14197     14198     14191     14189     14197     14199
     14191     14189     14197     14200     14191     14192     14194     14195
     14191     14192     14194     14196     14191     14192     14194     14206
     14192     14191     14189     14197     14192     14194     14206     14207
     14192     14194     14206     14208     14192     14194     14206     14209
     14193     14192     14194     14195     14193     14192     14194     14196
     14193     14192     14194     14206     14194     14206     14209     14210
     14194     14206     14209     14211     14194     14206     14209     14212
     14195     14194     14206     14207     14195     14194     14206     14208
     14195     14194     14206     14209     14196     14194     14206     14207
     14196     14194     14206     14208     14196     14194     14206     14209
     14197     14200     14201     14202     14197     14200     14201     14203
     14198     14197     14200     14201     14199     14197     14200     14201
     14200     14201     14203     14204     14200     14201     14203     14205
     14200     14201     14203     14250     14201     14203     14250     14251
     14201     14203     14250     14252     14201     14203     14250     14253
     14202     14201     14203     14204     14202     14201     14203     14205
     14202     14201     14203     14250     14203     14250     14253     14254
     14203     14250     14253     14255     14203     14250     14253     14256
     14204     14203     14250     14251     14204     14203     14250     14252
     14204     14203     14250     14253     14205     14203     14250     14251
     14205     14203     14250     14252     14205     14203     14250     14253
     14206     14209     14212     14213     14206     14209     14212     14214
     14206     14209     14212     14215     14207     14206     14209     14210
     14207     14206     14209     14211     14207     14206     14209     14212
     14208     14206     14209     14210     14208     14206     14209     14211
     14208     14206     14209     14212     14209     14212     14215     14216
     14209     14212     14215     14217     14209     14212     14215     14218
     14210     14209     14212     14213     14210     14209     14212     14214
     14210     14209     14212     14215     14211     14209     14212     14213
     14211     14209     14212     14214     14211     14209     14212     14215
     14212     14215     14218     14219     14212     14215     14218     14220
     14212     14215     14218     14221     14213     14212     14215     14216
     14213     14212     14215     14217     14213     14212     14215     14218
     14214     14212     14215     14216     14214     14212     14215     14217
     14214     14212     14215     14218     14215     14218     14221     14222
     14215     14218     14221     14223     14215     14218     14221     14224
     14216     14215     14218     14219     14216     14215     14218     14220
     14216     14215     14218     14221     14217     14215     14218     14219
     14217     14215     14218     14220     14217     14215     14218     14221
     14218     14221     14224     14225     14218     14221     14224     14226
     14218     14221     14224     14229     14219     14218     14221     14222
     14219     14218     14221     14223     14219     14218     14221     14224
     14220     14218     14221     14222     14220     14218     14221     14223
     14220     14218     14221     14224     14221     14224     14226     14227
     14221     14224     14226     14228     14221     14224     14226     14229
     14221     14224     14229     14226     14221     14224     14229     14230
     14221     14224     14229     14231     14222     14221     14224     14225
     14222     14221     14224     14226     14222     14221     14224     14229
     14223     14221     14224     14225     14223     14221     14224     14226
     14223     14221     14224     14229     14224     14226     14229     14230
     14224     14226     14229     14231     14224     14229     14226     14227
     14224     14229     14226     14228     14224     14229     14231     14232
     14224     14229     14231     14233     14224     14229     14231     14234
     14225     14224     14226     14227     14225     14224     14226     14228
     14225     14224     14226     14229     14225     14224     14229     14226
     14225     14224     14229     14230     14225     14224     14229     14231
     14226     14224     14229     14230     14226     14224     14229     14231
     14226     14229     14231     14232     14226     14229     14231     14233
     14226     14229     14231     14234     14227     14226     14224     14229
     14227     14226     14229     14230     14227     14226     14229     14231
     14228     14226     14224     14229     14228     14226     14229     14230
     14228     14226     14229     14231     14229     14231     14234     14235
     14229     14231     14234     14236     14229     14231     14234     14237
     14230     14229     14231     14232     14230     14229     14231     14233
     14230     14229     14231     14234     14231     14234     14237     14238
     14231     14234     14237     14239     14231     14234     14237     14240
     14232     14231     14234     14235     14232     14231     14234     14236
     14232     14231     14234     14237     14233     14231     14234     14235
     14233     14231     14234     14236     14233     14231     14234     14237
     14234     14237     14240     14241     14234     14237     14240     14242
     14234     14237     14240     14243     14235     14234     14237     14238
     14235     14234     14237     14239     14235     14234     14237     14240
     14236     14234     14237     14238     14236     14234     14237     14239
     14236     14234     14237     14240     14237     14240     14243     14244
     14237     14240     14243     14245     14237     14240     14243     14246
     14238     14237     14240     14241     14238     14237     14240     14242
     14238     14237     14240     14243     14239     14237     14240     14241
     14239     14237     14240     14242     14239     14237     14240     14243
     14240     14243     14246     14247     14240     14243     14246     14248
     14240     14243     14246     14249     14241     14240     14243     14244
     14241     14240     14243     14245     14241     14240     14243     14246
     14242     14240     14243     14244     14242     14240     14243     14245
     14242     14240     14243     14246     14244     14243     14246     14247
     14244     14243     14246     14248     14244     14243     14246     14249
     14245     14243     14246     14247     14245     14243     14246     14248
     14245     14243     14246     14249     14250     14253     14256     14257
     14250     14253     14256     14258     14250     14253     14256     14259
     14251     14250     14253     14254     14251     14250     14253     14255
     14251     14250     14253     14256     14252     14250     14253     14254
     14252     14250     14253     14255     14252     14250     14253     14256
     14253     14256     14259     14260     14253     14256     14259     14261
     14253     14256     14259     14262     14254     14253     14256     14257
     14254     14253     14256     14258     14254     14253     14256     14259
     14255     14253     14256     14257     14255     14253     14256     14258
     14255     14253     14256     14259     14256     14259     14262     14263
     14256     14259     14262     14264     14256     14259     14262     14265
     14257     14256     14259     14260     14257     14256     14259     14261
     14257     14256     14259     14262     14258     14256     14259     14260
     14258     14256     14259     14261     14258     14256     14259     14262
     14259     14262     14265     14266     14259     14262     14265     14267
     14259     14262     14265     14268     14260     14259     14262     14263
     14260     14259     14262     14264     14260     14259     14262     14265
     14261     14259     14262     14263     14261     14259     14262     14264
     14261     14259     14262     14265     14262     14265     14268     14269
     14262     14265     14268     14270     14262     14265     14268     14271
     14263     14262     14265     14266     14263     14262     14265     14267
     14263     14262     14265     14268     14264     14262     14265     14266
     14264     14262     14265     14267     14264     14262     14265     14268
     14265     14268     14271     14272     14265     14268     14271     14273
     14265     14268     14271     14274     14266     14265     14268     14269
     14266     14265     14268     14270     14266     14265     14268     14271
     14267     14265     14268     14269     14267     14265     14268     14270
     14267     14265     14268     14271     14268     14271     14274     14275
     14268     14271     14274     14276     14268     14271     14274     14277
     14269     14268     14271     14272     14269     14268     14271     14273
     14269     14268     14271     14274     14270     14268     14271     14272
     14270     14268     14271     14273     14270     14268     14271     14274
     14271     14274     14277     14278     14271     14274     14277     14279
     14271     14274     14277     14280     14272     14271     14274     14275
     14272     14271     14274     14276     14272     14271     14274     14277
     14273     14271     14274     14275     14273     14271     14274     14276
     14273     14271     14274     14277     14274     14277     14280     14281
     14274     14277     14280     14282     14274     14277     14280     14283
     14275     14274     14277     14278     14275     14274     14277     14279
     14275     14274     14277     14280     14276     14274     14277     14278
     14276     14274     14277     14279     14276     14274     14277     14280
     14277     14280     14283     14284     14277     14280     14283     14285
     14277     14280     14283     14286     14278     14277     14280     14281
     14278     14277     14280     14282     14278     14277     14280     14283
     14279     14277     14280     14281     14279     14277     14280     14282
     14279     14277     14280     14283     14280     14283     14286     14287
     14280     14283     14286     14288     14280     14283     14286     14289
     14281     14280     14283     14284     14281     14280     14283     14285
     14281     14280     14283     14286     14282     14280     14283     14284
     14282     14280     14283     14285     14282     14280     14283     14286
     14283     14286     14289     14290     14283     14286     14289     14291
     14283     14286     14289     14292     14284     14283     14286     14287
     14284     14283     14286     14288     14284     14283     14286     14289
     14285     14283     14286     14287     14285     14283     14286     14288
     14285     14283     14286     14289     14287     14286     14289     14290
     14287     14286     14289     14291     14287     14286     14289     14292
     14288     14286     14289     14290     14288     14286     14289     14291
     14288     14286     14289     14292     14293     14299     14296     14297
     14293     14299     14296     14298     14293     14299     14296     14300
     14293     14304     14306     14307     14293     14304     14308     14309
     14293     14304     14308     14310     14293     14304     14308     14314
     14294     14293     14299     14296     14294     14293     14304     14305
     14294     14293     14304     14306     14294     14293     14304     14308
     14295     14293     14299     14296     14295     14293     14304     14305
     14295     14293     14304     14306     14295     14293     14304     14308
     14296     14299     14293     14304     14296     14300     14301     14302
     14296     14300     14301     14303     14296     14300     14301     14336
     14297     14296     14300     14301     14298     14296     14300     14301
     14299     14293     14304     14305     14299     14293     14304     14306
     14299     14293     14304     14308     14299     14296     14300     14301
     14300     14301     14336     14337     14300     14301     14336     14338
     14300     14301     14336     14344     14301     14336     14338     14339
     14301     14336     14344     14345     14301     14336     14344     14346
     14301     14336     14344     14347     14302     14301     14336     14337
     14302     14301     14336     14338     14302     14301     14336     14344
     14303     14301     14336     14337     14303     14301     14336     14338
     14303     14301     14336     14344     14304     14308     14314     14311
     14305     14304     14306     14307     14305     14304     14308     14309
     14305     14304     14308     14310     14305     14304     14308     14314
     14306     14304     14308     14309     14306     14304     14308     14310
     14306     14304     14308     14314     14307     14306     14304     14308
     14308     14314     14311     14312     14308     14314     14311     14313
     14308     14314     14311     14315     14309     14308     14314     14311
     14310     14308     14314     14311     14311     14315     14316     14317
     14311     14315     14316     14318     14311     14315     14316     14319
     14312     14311     14315     14316     14313     14311     14315     14316
     14314     14311     14315     14316     14315     14316     14319     14320
     14315     14316     14319     14321     14315     14316     14319     14327
     14316     14319     14321     14322     14316     14319     14327     14328
     14316     14319     14327     14329     14316     14319     14327     14330
     14317     14316     14319     14320     14317     14316     14319     14321
     14317     14316     14319     14327     14318     14316     14319     14320
     14318     14316     14319     14321     14318     14316     14319     14327
     14319     14321     14322     14323     14319     14321     14322     14324
     14319     14327     14330     14331     14320     14319     14321     14322
     14320     14319     14327     14328     14320     14319     14327     14329
     14320     14319     14327     14330     14321     14319     14327     14328
     14321     14319     14327     14329     14321     14319     14327     14330
     14321     14322     14324     14325     14321     14322     14324     14326
     14321     14322     14324     14353     14322     14321     14319     14327
     14322     14324     14353     14354     14322     14324     14353     14355
     14322     14324     14353     14356     14323     14322     14324     14325
     14323     14322     14324     14326     14323     14322     14324     14353
     14324     14353     14356     14357     14324     14353     14356     14358
     14324     14353     14356     14359     14325     14324     14353     14354
     14325     14324     14353     14355     14325     14324     14353     14356
     14326     14324     14353     14354     14326     14324     14353     14355
     14326     14324     14353     14356     14327     14330     14331     14332
     14327     14330     14331     14333     14328     14327     14330     14331
     14329     14327     14330     14331     14330     14331     14333     14334
     14330     14331     14333     14335     14330     14331     14333     14400
     14331     14333     14400     14401     14331     14333     14400     14402
     14331     14333     14400     14403     14332     14331     14333     14334
     14332     14331     14333     14335     14332     14331     14333     14400
     14333     14400     14403     14404     14333     14400     14403     14405
     14333     14400     14403     14406     14334     14333     14400     14401
     14334     14333     14400     14402     14334     14333     14400     14403
     14335     14333     14400     14401     14335     14333     14400     14402
     14335     14333     14400     14403     14336     14338     14339     14340
     14336     14338     14339     14341     14336     14344     14347     14348
     14337     14336     14338     14339     14337     14336     14344     14345
     14337     14336     14344     14346     14337     14336     14344     14347
     14338     14336     14344     14345     14338     14336     14344     14346
     14338     14336     14344     14347     14338     14339     14341     14342
     14338     14339     14341     14343     14338     14339     14341     14443
     14339     14338     14336     14344     14339     14341     14443     14444
     14339     14341     14443     14445     14339     14341     14443     14446
     14340     14339     14341     14342     14340     14339     14341     14343
     14340     14339     14341     14443     14341     14443     14446     14447
     14341     14443     14446     14448     14341     14443     14446     14449
     14342     14341     14443     14444     14342     14341     14443     14445
     14342     14341     14443     14446     14343     14341     14443     14444
     14343     14341     14443     14445     14343     14341     14443     14446
     14344     14347     14348     14349     14344     14347     14348     14350
     14345     14344     14347     14348     14346     14344     14347     14348
     14347     14348     14350     14351     14347     14348     14350     14352
     14347     14348     14350     14490     14348     14350     14490     14491
     14348     14350     14490     14492     14348     14350     14490     14493
     14349     14348     14350     14351     14349     14348     14350     14352
     14349     14348     14350     14490     14350     14490     14493     14494
     14350     14490     14493     14495     14350     14490     14493     14496
     14351     14350     14490     14491     14351     14350     14490     14492
     14351     14350     14490     14493     14352     14350     14490     14491
     14352     14350     14490     14492     14352     14350     14490     14493
     14353     14356     14359     14360     14353     14356     14359     14361
     14353     14356     14359     14362     14354     14353     14356     14357
     14354     14353     14356     14358     14354     14353     14356     14359
     14355     14353     14356     14357     14355     14353     14356     14358
     14355     14353     14356     14359     14356     14359     14362     14363
     14356     14359     14362     14364     14356     14359     14362     14365
     14357     14356     14359     14360     14357     14356     14359     14361
     14357     14356     14359     14362     14358     14356     14359     14360
     14358     14356     14359     14361     14358     14356     14359     14362
     14359     14362     14365     14366     14359     14362     14365     14367
     14359     14362     14365     14368     14360     14359     14362     14363
     14360     14359     14362     14364     14360     14359     14362     14365
     14361     14359     14362     14363     14361     14359     14362     14364
     14361     14359     14362     14365     14362     14365     14368     14369
     14362     14365     14368     14370     14362     14365     14368     14371
     14363     14362     14365     14366     14363     14362     14365     14367
     14363     14362     14365     14368     14364     14362     14365     14366
     14364     14362     14365     14367     14364     14362     14365     14368
     14365     14368     14371     14372     14365     14368     14371     14373
     14365     14368     14371     14374     14366     14365     14368     14369
     14366     14365     14368     14370     14366     14365     14368     14371
     14367     14365     14368     14369     14367     14365     14368     14370
     14367     14365     14368     14371     14368     14371     14374     14375
     14368     14371     14374     14376     14368     14371     14374     14377
     14369     14368     14371     14372     14369     14368     14371     14373
     14369     14368     14371     14374     14370     14368     14371     14372
     14370     14368     14371     14373     14370     14368     14371     14374
     14371     14374     14377     14378     14371     14374     14377     14379
     14372     14371     14374     14375     14372     14371     14374     14376
     14372     14371     14374     14377     14373     14371     14374     14375
     14373     14371     14374     14376     14373     14371     14374     14377
     14374     14377     14379     14380     14374     14377     14379     14381
     14375     14374     14377     14378     14375     14374     14377     14379
     14376     14374     14377     14378     14376     14374     14377     14379
     14377     14379     14381     14382     14377     14379     14381     14383
     14377     14379     14381     14384     14378     14377     14379     14380
     14378     14377     14379     14381     14379     14381     14384     14385
     14379     14381     14384     14386     14379     14381     14384     14387
     14380     14379     14381     14382     14380     14379     14381     14383
     14380     14379     14381     14384     14381     14384     14387     14388
     14381     14384     14387     14389     14381     14384     14387     14390
     14382     14381     14384     14385     14382     14381     14384     14386
     14382     14381     14384     14387     14383     14381     14384     14385
     14383     14381     14384     14386     14383     14381     14384     14387
     14384     14387     14390     14391     14384     14387     14390     14392
     14384     14387     14390     14393     14385     14384     14387     14388
     14385     14384     14387     14389     14385     14384     14387     14390
     14386     14384     14387     14388     14386     14384     14387     14389
     14386     14384     14387     14390     14387     14390     14393     14394
     14387     14390     14393     14395     14387     14390     14393     14396
     14388     14387     14390     14391     14388     14387     14390     14392
     14388     14387     14390     14393     14389     14387     14390     14391
     14389     14387     14390     14392     14389     14387     14390     14393
     14390     14393     14396     14397     14390     14393     14396     14398
     14390     14393     14396     14399     14391     14390     14393     14394
     14391     14390     14393     14395     14391     14390     14393     14396
     14392     14390     14393     14394     14392     14390     14393     14395
     14392     14390     14393     14396     14394     14393     14396     14397
     14394     14393     14396     14398     14394     14393     14396     14399
     14395     14393     14396     14397     14395     14393     14396     14398
     14395     14393     14396     14399     14400     14403     14406     14407
     14400     14403     14406     14408     14400     14403     14406     14409
     14401     14400     14403     14404     14401     14400     14403     14405
     14401     14400     14403     14406     14402     14400     14403     14404
     14402     14400     14403     14405     14402     14400     14403     14406
     14403     14406     14409     14410     14403     14406     14409     14411
     14403     14406     14409     14412     14404     14403     14406     14407
     14404     14403     14406     14408     14404     14403     14406     14409
     14405     14403     14406     14407     14405     14403     14406     14408
     14405     14403     14406     14409     14406     14409     14412     14413
     14406     14409     14412     14414     14406     14409     14412     14415
     14407     14406     14409     14410     14407     14406     14409     14411
     14407     14406     14409     14412     14408     14406     14409     14410
     14408     14406     14409     14411     14408     14406     14409     14412
     14409     14412     14415     14416     14409     14412     14415     14417
     14409     14412     14415     14418     14410     14409     14412     14413
     14410     14409     14412     14414     14410     14409     14412     14415
     14411     14409     14412     14413     14411     14409     14412     14414
     14411     14409     14412     14415     14412     14415     14418     14419
     14412     14415     14418     14420     14412     14415     14418     14421
     14413     14412     14415     14416     14413     14412     14415     14417
     14413     14412     14415     14418     14414     14412     14415     14416
     14414     14412     14415     14417     14414     14412     14415     14418
     14415     14418     14421     14422     14415     14418     14421     14423
     14415     14418     14421     14424     14416     14415     14418     14419
     14416     14415     14418     14420     14416     14415     14418     14421
     14417     14415     14418     14419     14417     14415     14418     14420
     14417     14415     14418     14421     14418     14421     14424     14425
     14418     14421     14424     14426     14418     14421     14424     14427
     14419     14418     14421     14422     14419     14418     14421     14423
     14419     14418     14421     14424     14420     14418     14421     14422
     14420     14418     14421     14423     14420     14418     14421     14424
     14421     14424     14427     14428     14421     14424     14427     14429
     14421     14424     14427     14430     14422     14421     14424     14425
     14422     14421     14424     14426     14422     14421     14424     14427
     14423     14421     14424     14425     14423     14421     14424     14426
     14423     14421     14424     14427     14424     14427     14430     14431
     14424     14427     14430     14432     14424     14427     14430     14433
     14425     14424     14427     14428     14425     14424     14427     14429
     14425     14424     14427     14430     14426     14424     14427     14428
     14426     14424     14427     14429     14426     14424     14427     14430
     14427     14430     14433     14434     14427     14430     14433     14435
     14427     14430     14433     14436     14428     14427     14430     14431
     14428     14427     14430     14432     14428     14427     14430     14433
     14429     14427     14430     14431     14429     14427     14430     14432
     14429     14427     14430     14433     14430     14433     14436     14437
     14430     14433     14436     14438     14430     14433     14436     14439
     14431     14430     14433     14434     14431     14430     14433     14435
     14431     14430     14433     14436     14432     14430     14433     14434
     14432     14430     14433     14435     14432     14430     14433     14436
     14433     14436     14439     14440     14433     14436     14439     14441
     14433     14436     14439     14442     14434     14433     14436     14437
     14434     14433     14436     14438     14434     14433     14436     14439
     14435     14433     14436     14437     14435     14433     14436     14438
     14435     14433     14436     14439     14437     14436     14439     14440
     14437     14436     14439     14441     14437     14436     14439     14442
     14438     14436     14439     14440     14438     14436     14439     14441
     14438     14436     14439     14442     14443     14446     14449     14450
     14443     14446     14449     14451     14443     14446     14449     14452
     14444     14443     14446     14447     14444     14443     14446     14448
     14444     14443     14446     14449     14445     14443     14446     14447
     14445     14443     14446     14448     14445     14443     14446     14449
     14446     14449     14452     14453     14446     14449     14452     14454
     14446     14449     14452     14455     14447     14446     14449     14450
     14447     14446     14449     14451     14447     14446     14449     14452
     14448     14446     14449     14450     14448     14446     14449     14451
     14448     14446     14449     14452     14449     14452     14455     14456
     14449     14452     14455     14457     14449     14452     14455     14458
     14450     14449     14452     14453     14450     14449     14452     14454
     14450     14449     14452     14455     14451     14449     14452     14453
     14451     14449     14452     14454     14451     14449     14452     14455
     14452     14455     14458     14459     14452     14455     14458     14460
     14452     14455     14458     14461     14453     14452     14455     14456
     14453     14452     14455     14457     14453     14452     14455     14458
     14454     14452     14455     14456     14454     14452     14455     14457
     14454     14452     14455     14458     14455     14458     14461     14462
     14455     14458     14461     14463     14455     14458     14461     14464
     14456     14455     14458     14459     14456     14455     14458     14460
     14456     14455     14458     14461     14457     14455     14458     14459
     14457     14455     14458     14460     14457     14455     14458     14461
     14458     14461     14464     14465     14458     14461     14464     14466
     14458     14461     14464     14467     14459     14458     14461     14462
     14459     14458     14461     14463     14459     14458     14461     14464
     14460     14458     14461     14462     14460     14458     14461     14463
     14460     14458     14461     14464     14461     14464     14467     14468
     14461     14464     14467     14469     14462     14461     14464     14465
     14462     14461     14464     14466     14462     14461     14464     14467
     14463     14461     14464     14465     14463     14461     14464     14466
     14463     14461     14464     14467     14464     14467     14469     14470
     14464     14467     14469     14471     14465     14464     14467     14468
     14465     14464     14467     14469     14466     14464     14467     14468
     14466     14464     14467     14469     14467     14469     14471     14472
     14467     14469     14471     14473     14467     14469     14471     14474
     14468     14467     14469     14470     14468     14467     14469     14471
     14469     14471     14474     14475     14469     14471     14474     14476
     14469     14471     14474     14477     14470     14469     14471     14472
     14470     14469     14471     14473     14470     14469     14471     14474
     14471     14474     14477     14478     14471     14474     14477     14479
     14471     14474     14477     14480     14472     14471     14474     14475
     14472     14471     14474     14476     14472     14471     14474     14477
     14473     14471     14474     14475     14473     14471     14474     14476
     14473     14471     14474     14477     14474     14477     14480     14481
     14474     14477     14480     14482     14474     14477     14480     14483
     14475     14474     14477     14478     14475     14474     14477     14479
     14475     14474     14477     14480     14476     14474     14477     14478
     14476     14474     14477     14479     14476     14474     14477     14480
     14477     14480     14483     14484     14477     14480     14483     14485
     14477     14480     14483     14486     14478     14477     14480     14481
     14478     14477     14480     14482     14478     14477     14480     14483
     14479     14477     14480     14481     14479     14477     14480     14482
     14479     14477     14480     14483     14480     14483     14486     14487
     14480     14483     14486     14488     14480     14483     14486     14489
     14481     14480     14483     14484     14481     14480     14483     14485
     14481     14480     14483     14486     14482     14480     14483     14484
     14482     14480     14483     14485     14482     14480     14483     14486
     14484     14483     14486     14487     14484     14483     14486     14488
     14484     14483     14486     14489     14485     14483     14486     14487
     14485     14483     14486     14488     14485     14483     14486     14489
     14490     14493     14496     14497     14490     14493     14496     14498
     14490     14493     14496     14499     14491     14490     14493     14494
     14491     14490     14493     14495     14491     14490     14493     14496
     14492     14490     14493     14494     14492     14490     14493     14495
     14492     14490     14493     14496     14493     14496     14499     14500
     14493     14496     14499     14501     14493     14496     14499     14502
     14494     14493     14496     14497     14494     14493     14496     14498
     14494     14493     14496     14499     14495     14493     14496     14497
     14495     14493     14496     14498     14495     14493     14496     14499
     14496     14499     14502     14503     14496     14499     14502     14504
     14496     14499     14502     14505     14497     14496     14499     14500
     14497     14496     14499     14501     14497     14496     14499     14502
     14498     14496     14499     14500     14498     14496     14499     14501
     14498     14496     14499     14502     14499     14502     14505     14506
     14499     14502     14505     14507     14499     14502     14505     14508
     14500     14499     14502     14503     14500     14499     14502     14504
     14500     14499     14502     14505     14501     14499     14502     14503
     14501     14499     14502     14504     14501     14499     14502     14505
     14502     14505     14508     14509     14502     14505     14508     14510
     14502     14505     14508     14511     14503     14502     14505     14506
     14503     14502     14505     14507     14503     14502     14505     14508
     14504     14502     14505     14506     14504     14502     14505     14507
     14504     14502     14505     14508     14505     14508     14511     14512
     14505     14508     14511     14513     14505     14508     14511     14514
     14506     14505     14508     14509     14506     14505     14508     14510
     14506     14505     14508     14511     14507     14505     14508     14509
     14507     14505     14508     14510     14507     14505     14508     14511
     14508     14511     14514     14515     14508     14511     14514     14516
     14508     14511     14514     14517     14509     14508     14511     14512
     14509     14508     14511     14513     14509     14508     14511     14514
     14510     14508     14511     14512     14510     14508     14511     14513
     14510     14508     14511     14514     14511     14514     14517     14518
     14511     14514     14517     14519     14511     14514     14517     14520
     14512     14511     14514     14515     14512     14511     14514     14516
     14512     14511     14514     14517     14513     14511     14514     14515
     14513     14511     14514     14516     14513     14511     14514     14517
     14514     14517     14520     14521     14514     14517     14520     14522
     14514     14517     14520     14523     14515     14514     14517     14518
     14515     14514     14517     14519     14515     14514     14517     14520
     14516     14514     14517     14518     14516     14514     14517     14519
     14516     14514     14517     14520     14517     14520     14523     14524
     14517     14520     14523     14525     14517     14520     14523     14526
     14518     14517     14520     14521     14518     14517     14520     14522
     14518     14517     14520     14523     14519     14517     14520     14521
     14519     14517     14520     14522     14519     14517     14520     14523
     14520     14523     14526     14527     14520     14523     14526     14528
     14520     14523     14526     14529     14521     14520     14523     14524
     14521     14520     14523     14525     14521     14520     14523     14526
     14522     14520     14523     14524     14522     14520     14523     14525
     14522     14520     14523     14526     14523     14526     14529     14530
     14523     14526     14529     14531     14523     14526     14529     14532
     14524     14523     14526     14527     14524     14523     14526     14528
     14524     14523     14526     14529     14525     14523     14526     14527
     14525     14523     14526     14528     14525     14523     14526     14529
     14527     14526     14529     14530     14527     14526     14529     14531
     14527     14526     14529     14532     14528     14526     14529     14530
     14528     14526     14529     14531     14528     14526     14529     14532
     14533     14537     14540     14541     14533     14537     14540     14542
     14533     14537     14540     14547     14534     14533     14537     14538
     14534     14533     14537     14539     14534     14533     14537     14540
     14535     14533     14537     14538     14535     14533     14537     14539
     14535     14533     14537     14540     14536     14533     14537     14538
     14536     14533     14537     14539     14536     14533     14537     14540
     14537     14540     14547     14543     14538     14537     14540     14541
     14538     14537     14540     14542     14538     14537     14540     14547
     14539     14537     14540     14541     14539     14537     14540     14542
     14539     14537     14540     14547     14540     14547     14543     14544
     14540     14547     14543     14545     14540     14547     14543     14546
     14541     14540     14547     14543     14542     14540     14547     14543
     14543     14546     14548     14549     14543     14546     14548     14550
     14543     14546     14548     14551     14544     14543     14546     14548
     14545     14543     14546     14548     14546     14548     14551     14552
     14546     14548     14551     14553     14546     14548     14551     14559
     14547     14543     14546     14548     14548     14551     14553     14554
     14548     14551     14559     14560     14548     14551     14559     14561
     14548     14551     14559     14562     14549     14548     14551     14552
     14549     14548     14551     14553     14549     14548     14551     14559
     14550     14548     14551     14552     14550     14548     14551     14553
     14550     14548     14551     14559     14551     14553     14554     14555
     14551     14553     14554     14556     14551     14559     14562     14563
     14552     14551     14553     14554     14552     14551     14559     14560
     14552     14551     14559     14561     14552     14551     14559     14562
     14553     14551     14559     14560     14553     14551     14559     14561
     14553     14551     14559     14562     14553     14554     14556     14557
     14553     14554     14556     14558     14553     14554     14556     14568
     14554     14553     14551     14559     14554     14556     14568     14569
     14554     14556     14568     14570     14554     14556     14568     14571
     14555     14554     14556     14557     14555     14554     14556     14558
     14555     14554     14556     14568     14556     14568     14571     14572
     14556     14568     14571     14573     14556     14568     14571     14574
     14557     14556     14568     14569     14557     14556     14568     14570
     14557     14556     14568     14571     14558     14556     14568     14569
     14558     14556     14568     14570     14558     14556     14568     14571
     14559     14562     14563     14564     14559     14562     14563     14565
     14560     14559     14562     14563     14561     14559     14562     14563
     14562     14563     14565     14566     14562     14563     14565     14567
     14562     14563     14565     14612     14563     14565     14612     14613
     14563     14565     14612     14614     14563     14565     14612     14615
     14564     14563     14565     14566     14564     14563     14565     14567
     14564     14563     14565     14612     14565     14612     14615     14616
     14565     14612     14615     14617     14565     14612     14615     14618
     14566     14565     14612     14613     14566     14565     14612     14614
     14566     14565     14612     14615     14567     14565     14612     14613
     14567     14565     14612     14614     14567     14565     14612     14615
     14568     14571     14574     14575     14568     14571     14574     14576
     14568     14571     14574     14577     14569     14568     14571     14572
     14569     14568     14571     14573     14569     14568     14571     14574
     14570     14568     14571     14572     14570     14568     14571     14573
     14570     14568     14571     14574     14571     14574     14577     14578
     14571     14574     14577     14579     14571     14574     14577     14580
     14572     14571     14574     14575     14572     14571     14574     14576
     14572     14571     14574     14577     14573     14571     14574     14575
     14573     14571     14574     14576     14573     14571     14574     14577
     14574     14577     14580     14581     14574     14577     14580     14582
     14574     14577     14580     14583     14575     14574     14577     14578
     14575     14574     14577     14579     14575     14574     14577     14580
     14576     14574     14577     14578     14576     14574     14577     14579
     14576     14574     14577     14580     14577     14580     14583     14584
     14577     14580     14583     14585     14577     14580     14583     14586
     14578     14577     14580     14581     14578     14577     14580     14582
     14578     14577     14580     14583     14579     14577     14580     14581
     14579     14577     14580     14582     14579     14577     14580     14583
     14580     14583     14586     14587     14580     14583     14586     14588
     14580     14583     14586     14591     14581     14580     14583     14584
     14581     14580     14583     14585     14581     14580     14583     14586
     14582     14580     14583     14584     14582     14580     14583     14585
     14582     14580     14583     14586     14583     14586     14588     14589
     14583     14586     14588     14590     14583     14586     14588     14591
     14583     14586     14591     14588     14583     14586     14591     14592
     14583     14586     14591     14593     14584     14583     14586     14587
     14584     14583     14586     14588     14584     14583     14586     14591
     14585     14583     14586     14587     14585     14583     14586     14588
     14585     14583     14586     14591     14586     14588     14591     14592
     14586     14588     14591     14593     14586     14591     14588     14589
     14586     14591     14588     14590     14586     14591     14593     14594
     14586     14591     14593     14595     14586     14591     14593     14596
     14587     14586     14588     14589     14587     14586     14588     14590
     14587     14586     14588     14591     14587     14586     14591     14588
     14587     14586     14591     14592     14587     14586     14591     14593
     14588     14586     14591     14592     14588     14586     14591     14593
     14588     14591     14593     14594     14588     14591     14593     14595
     14588     14591     14593     14596     14589     14588     14586     14591
     14589     14588     14591     14592     14589     14588     14591     14593
     14590     14588     14586     14591     14590     14588     14591     14592
     14590     14588     14591     14593     14591     14593     14596     14597
     14591     14593     14596     14598     14591     14593     14596     14599
     14592     14591     14593     14594     14592     14591     14593     14595
     14592     14591     14593     14596     14593     14596     14599     14600
     14593     14596     14599     14601     14593     14596     14599     14602
     14594     14593     14596     14597     14594     14593     14596     14598
     14594     14593     14596     14599     14595     14593     14596     14597
     14595     14593     14596     14598     14595     14593     14596     14599
     14596     14599     14602     14603     14596     14599     14602     14604
     14596     14599     14602     14605     14597     14596     14599     14600
     14597     14596     14599     14601     14597     14596     14599     14602
     14598     14596     14599     14600     14598     14596     14599     14601
     14598     14596     14599     14602     14599     14602     14605     14606
     14599     14602     14605     14607     14599     14602     14605     14608
     14600     14599     14602     14603     14600     14599     14602     14604
     14600     14599     14602     14605     14601     14599     14602     14603
     14601     14599     14602     14604     14601     14599     14602     14605
     14602     14605     14608     14609     14602     14605     14608     14610
     14602     14605     14608     14611     14603     14602     14605     14606
     14603     14602     14605     14607     14603     14602     14605     14608
     14604     14602     14605     14606     14604     14602     14605     14607
     14604     14602     14605     14608     14606     14605     14608     14609
     14606     14605     14608     14610     14606     14605     14608     14611
     14607     14605     14608     14609     14607     14605     14608     14610
     14607     14605     14608     14611     14612     14615     14618     14619
     14612     14615     14618     14620     14612     14615     14618     14621
     14613     14612     14615     14616     14613     14612     14615     14617
     14613     14612     14615     14618     14614     14612     14615     14616
     14614     14612     14615     14617     14614     14612     14615     14618
     14615     14618     14621     14622     14615     14618     14621     14623
     14615     14618     14621     14624     14616     14615     14618     14619
     14616     14615     14618     14620     14616     14615     14618     14621
     14617     14615     14618     14619     14617     14615     14618     14620
     14617     14615     14618     14621     14618     14621     14624     14625
     14618     14621     14624     14626     14618     14621     14624     14627
     14619     14618     14621     14622     14619     14618     14621     14623
     14619     14618     14621     14624     14620     14618     14621     14622
     14620     14618     14621     14623     14620     14618     14621     14624
     14621     14624     14627     14628     14621     14624     14627     14629
     14621     14624     14627     14630     14622     14621     14624     14625
     14622     14621     14624     14626     14622     14621     14624     14627
     14623     14621     14624     14625     14623     14621     14624     14626
     14623     14621     14624     14627     14624     14627     14630     14631
     14624     14627     14630     14632     14624     14627     14630     14633
     14625     14624     14627     14628     14625     14624     14627     14629
     14625     14624     14627     14630     14626     14624     14627     14628
     14626     14624     14627     14629     14626     14624     14627     14630
     14627     14630     14633     14634     14627     14630     14633     14635
     14627     14630     14633     14636     14628     14627     14630     14631
     14628     14627     14630     14632     14628     14627     14630     14633
     14629     14627     14630     14631     14629     14627     14630     14632
     14629     14627     14630     14633     14630     14633     14636     14637
     14630     14633     14636     14638     14630     14633     14636     14639
     14631     14630     14633     14634     14631     14630     14633     14635
     14631     14630     14633     14636     14632     14630     14633     14634
     14632     14630     14633     14635     14632     14630     14633     14636
     14633     14636     14639     14640     14633     14636     14639     14641
     14633     14636     14639     14642     14634     14633     14636     14637
     14634     14633     14636     14638     14634     14633     14636     14639
     14635     14633     14636     14637     14635     14633     14636     14638
     14635     14633     14636     14639     14636     14639     14642     14643
     14636     14639     14642     14644     14636     14639     14642     14645
     14637     14636     14639     14640     14637     14636     14639     14641
     14637     14636     14639     14642     14638     14636     14639     14640
     14638     14636     14639     14641     14638     14636     14639     14642
     14639     14642     14645     14646     14639     14642     14645     14647
     14639     14642     14645     14648     14640     14639     14642     14643
     14640     14639     14642     14644     14640     14639     14642     14645
     14641     14639     14642     14643     14641     14639     14642     14644
     14641     14639     14642     14645     14642     14645     14648     14649
     14642     14645     14648     14650     14642     14645     14648     14651
     14643     14642     14645     14646     14643     14642     14645     14647
     14643     14642     14645     14648     14644     14642     14645     14646
     14644     14642     14645     14647     14644     14642     14645     14648
     14646     14645     14648     14649     14646     14645     14648     14650
     14646     14645     14648     14651     14647     14645     14648     14649
     14647     14645     14648     14650     14647     14645     14648     14651
     14652     14656     14659     14660     14652     14656     14659     14661
     14652     14656     14659     14666     14653     14652     14656     14657
     14653     14652     14656     14658     14653     14652     14656     14659
     14654     14652     14656     14657     14654     14652     14656     14658
     14654     14652     14656     14659     14655     14652     14656     14657
     14655     14652     14656     14658     14655     14652     14656     14659
     14656     14659     14666     14662     14657     14656     14659     14660
     14657     14656     14659     14661     14657     14656     14659     14666
     14658     14656     14659     14660     14658     14656     14659     14661
     14658     14656     14659     14666     14659     14666     14662     14663
     14659     14666     14662     14664     14659     14666     14662     14665
     14660     14659     14666     14662     14661     14659     14666     14662
     14662     14665     14667     14668     14662     14665     14667     14669
     14662     14665     14667     14670     14663     14662     14665     14667
     14664     14662     14665     14667     14665     14667     14670     14671
     14665     14667     14670     14672     14665     14667     14670     14678
     14666     14662     14665     14667     14667     14670     14672     14673
     14667     14670     14678     14679     14667     14670     14678     14680
     14667     14670     14678     14681     14668     14667     14670     14671
     14668     14667     14670     14672     14668     14667     14670     14678
     14669     14667     14670     14671     14669     14667     14670     14672
     14669     14667     14670     14678     14670     14672     14673     14674
     14670     14672     14673     14675     14670     14678     14681     14682
     14671     14670     14672     14673     14671     14670     14678     14679
     14671     14670     14678     14680     14671     14670     14678     14681
     14672     14670     14678     14679     14672     14670     14678     14680
     14672     14670     14678     14681     14672     14673     14675     14676
     14672     14673     14675     14677     14672     14673     14675     14687
     14673     14672     14670     14678     14673     14675     14687     14688
     14673     14675     14687     14689     14673     14675     14687     14690
     14674     14673     14675     14676     14674     14673     14675     14677
     14674     14673     14675     14687     14675     14687     14690     14691
     14675     14687     14690     14692     14675     14687     14690     14693
     14676     14675     14687     14688     14676     14675     14687     14689
     14676     14675     14687     14690     14677     14675     14687     14688
     14677     14675     14687     14689     14677     14675     14687     14690
     14678     14681     14682     14683     14678     14681     14682     14684
     14679     14678     14681     14682     14680     14678     14681     14682
     14681     14682     14684     14685     14681     14682     14684     14686
     14681     14682     14684     14731     14682     14684     14731     14732
     14682     14684     14731     14733     14682     14684     14731     14734
     14683     14682     14684     14685     14683     14682     14684     14686
     14683     14682     14684     14731     14684     14731     14734     14735
     14684     14731     14734     14736     14684     14731     14734     14737
     14685     14684     14731     14732     14685     14684     14731     14733
     14685     14684     14731     14734     14686     14684     14731     14732
     14686     14684     14731     14733     14686     14684     14731     14734
     14687     14690     14693     14694     14687     14690     14693     14695
     14687     14690     14693     14696     14688     14687     14690     14691
     14688     14687     14690     14692     14688     14687     14690     14693
     14689     14687     14690     14691     14689     14687     14690     14692
     14689     14687     14690     14693     14690     14693     14696     14697
     14690     14693     14696     14698     14690     14693     14696     14699
     14691     14690     14693     14694     14691     14690     14693     14695
     14691     14690     14693     14696     14692     14690     14693     14694
     14692     14690     14693     14695     14692     14690     14693     14696
     14693     14696     14699     14700     14693     14696     14699     14701
     14693     14696     14699     14702     14694     14693     14696     14697
     14694     14693     14696     14698     14694     14693     14696     14699
     14695     14693     14696     14697     14695     14693     14696     14698
     14695     14693     14696     14699     14696     14699     14702     14703
     14696     14699     14702     14704     14696     14699     14702     14705
     14697     14696     14699     14700     14697     14696     14699     14701
     14697     14696     14699     14702     14698     14696     14699     14700
     14698     14696     14699     14701     14698     14696     14699     14702
     14699     14702     14705     14706     14699     14702     14705     14707
     14699     14702     14705     14710     14700     14699     14702     14703
     14700     14699     14702     14704     14700     14699     14702     14705
     14701     14699     14702     14703     14701     14699     14702     14704
     14701     14699     14702     14705     14702     14705     14707     14708
     14702     14705     14707     14709     14702     14705     14707     14710
     14702     14705     14710     14707     14702     14705     14710     14711
     14702     14705     14710     14712     14703     14702     14705     14706
     14703     14702     14705     14707     14703     14702     14705     14710
     14704     14702     14705     14706     14704     14702     14705     14707
     14704     14702     14705     14710     14705     14707     14710     14711
     14705     14707     14710     14712     14705     14710     14707     14708
     14705     14710     14707     14709     14705     14710     14712     14713
     14705     14710     14712     14714     14705     14710     14712     14715
     14706     14705     14707     14708     14706     14705     14707     14709
     14706     14705     14707     14710     14706     14705     14710     14707
     14706     14705     14710     14711     14706     14705     14710     14712
     14707     14705     14710     14711     14707     14705     14710     14712
     14707     14710     14712     14713     14707     14710     14712     14714
     14707     14710     14712     14715     14708     14707     14705     14710
     14708     14707     14710     14711     14708     14707     14710     14712
     14709     14707     14705     14710     14709     14707     14710     14711
     14709     14707     14710     14712     14710     14712     14715     14716
     14710     14712     14715     14717     14710     14712     14715     14718
     14711     14710     14712     14713     14711     14710     14712     14714
     14711     14710     14712     14715     14712     14715     14718     14719
     14712     14715     14718     14720     14712     14715     14718     14721
     14713     14712     14715     14716     14713     14712     14715     14717
     14713     14712     14715     14718     14714     14712     14715     14716
     14714     14712     14715     14717     14714     14712     14715     14718
     14715     14718     14721     14722     14715     14718     14721     14723
     14715     14718     14721     14724     14716     14715     14718     14719
     14716     14715     14718     14720     14716     14715     14718     14721
     14717     14715     14718     14719     14717     14715     14718     14720
     14717     14715     14718     14721     14718     14721     14724     14725
     14718     14721     14724     14726     14718     14721     14724     14727
     14719     14718     14721     14722     14719     14718     14721     14723
     14719     14718     14721     14724     14720     14718     14721     14722
     14720     14718     14721     14723     14720     14718     14721     14724
     14721     14724     14727     14728     14721     14724     14727     14729
     14721     14724     14727     14730     14722     14721     14724     14725
     14722     14721     14724     14726     14722     14721     14724     14727
     14723     14721     14724     14725     14723     14721     14724     14726
     14723     14721     14724     14727     14725     14724     14727     14728
     14725     14724     14727     14729     14725     14724     14727     14730
     14726     14724     14727     14728     14726     14724     14727     14729
     14726     14724     14727     14730     14731     14734     14737     14738
     14731     14734     14737     14739     14731     14734     14737     14740
     14732     14731     14734     14735     14732     14731     14734     14736
     14732     14731     14734     14737     14733     14731     14734     14735
     14733     14731     14734     14736     14733     14731     14734     14737
     14734     14737     14740     14741     14734     14737     14740     14742
     14734     14737     14740     14743     14735     14734     14737     14738
     14735     14734     14737     14739     14735     14734     14737     14740
     14736     14734     14737     14738     14736     14734     14737     14739
     14736     14734     14737     14740     14737     14740     14743     14744
     14737     14740     14743     14745     14737     14740     14743     14746
     14738     14737     14740     14741     14738     14737     14740     14742
     14738     14737     14740     14743     14739     14737     14740     14741
     14739     14737     14740     14742     14739     14737     14740     14743
     14740     14743     14746     14747     14740     14743     14746     14748
     14740     14743     14746     14749     14741     14740     14743     14744
     14741     14740     14743     14745     14741     14740     14743     14746
     14742     14740     14743     14744     14742     14740     14743     14745
     14742     14740     14743     14746     14743     14746     14749     14750
     14743     14746     14749     14751     14743     14746     14749     14752
     14744     14743     14746     14747     14744     14743     14746     14748
     14744     14743     14746     14749     14745     14743     14746     14747
     14745     14743     14746     14748     14745     14743     14746     14749
     14746     14749     14752     14753     14746     14749     14752     14754
     14746     14749     14752     14755     14747     14746     14749     14750
     14747     14746     14749     14751     14747     14746     14749     14752
     14748     14746     14749     14750     14748     14746     14749     14751
     14748     14746     14749     14752     14749     14752     14755     14756
     14749     14752     14755     14757     14749     14752     14755     14758
     14750     14749     14752     14753     14750     14749     14752     14754
     14750     14749     14752     14755     14751     14749     14752     14753
     14751     14749     14752     14754     14751     14749     14752     14755
     14752     14755     14758     14759     14752     14755     14758     14760
     14752     14755     14758     14761     14753     14752     14755     14756
     14753     14752     14755     14757     14753     14752     14755     14758
     14754     14752     14755     14756     14754     14752     14755     14757
     14754     14752     14755     14758     14755     14758     14761     14762
     14755     14758     14761     14763     14755     14758     14761     14764
     14756     14755     14758     14759     14756     14755     14758     14760
     14756     14755     14758     14761     14757     14755     14758     14759
     14757     14755     14758     14760     14757     14755     14758     14761
     14758     14761     14764     14765     14758     14761     14764     14766
     14758     14761     14764     14767     14759     14758     14761     14762
     14759     14758     14761     14763     14759     14758     14761     14764
     14760     14758     14761     14762     14760     14758     14761     14763
     14760     14758     14761     14764     14761     14764     14767     14768
     14761     14764     14767     14769     14761     14764     14767     14770
     14762     14761     14764     14765     14762     14761     14764     14766
     14762     14761     14764     14767     14763     14761     14764     14765
     14763     14761     14764     14766     14763     14761     14764     14767
     14765     14764     14767     14768     14765     14764     14767     14769
     14765     14764     14767     14770     14766     14764     14767     14768
     14766     14764     14767     14769     14766     14764     14767     14770
     14771     14775     14778     14779     14771     14775     14778     14780
     14771     14775     14778     14785     14772     14771     14775     14776
     14772     14771     14775     14777     14772     14771     14775     14778
     14773     14771     14775     14776     14773     14771     14775     14777
     14773     14771     14775     14778     14774     14771     14775     14776
     14774     14771     14775     14777     14774     14771     14775     14778
     14775     14778     14785     14781     14776     14775     14778     14779
     14776     14775     14778     14780     14776     14775     14778     14785
     14777     14775     14778     14779     14777     14775     14778     14780
     14777     14775     14778     14785     14778     14785     14781     14782
     14778     14785     14781     14783     14778     14785     14781     14784
     14779     14778     14785     14781     14780     14778     14785     14781
     14781     14784     14786     14787     14781     14784     14786     14788
     14781     14784     14786     14789     14782     14781     14784     14786
     14783     14781     14784     14786     14784     14786     14789     14790
     14784     14786     14789     14791     14784     14786     14789     14797
     14785     14781     14784     14786     14786     14789     14791     14792
     14786     14789     14797     14798     14786     14789     14797     14799
     14786     14789     14797     14800     14787     14786     14789     14790
     14787     14786     14789     14791     14787     14786     14789     14797
     14788     14786     14789     14790     14788     14786     14789     14791
     14788     14786     14789     14797     14789     14791     14792     14793
     14789     14791     14792     14794     14789     14797     14800     14801
     14790     14789     14791     14792     14790     14789     14797     14798
     14790     14789     14797     14799     14790     14789     14797     14800
     14791     14789     14797     14798     14791     14789     14797     14799
     14791     14789     14797     14800     14791     14792     14794     14795
     14791     14792     14794     14796     14791     14792     14794     14806
     14792     14791     14789     14797     14792     14794     14806     14807
     14792     14794     14806     14808     14792     14794     14806     14809
     14793     14792     14794     14795     14793     14792     14794     14796
     14793     14792     14794     14806     14794     14806     14809     14810
     14794     14806     14809     14811     14794     14806     14809     14812
     14795     14794     14806     14807     14795     14794     14806     14808
     14795     14794     14806     14809     14796     14794     14806     14807
     14796     14794     14806     14808     14796     14794     14806     14809
     14797     14800     14801     14802     14797     14800     14801     14803
     14798     14797     14800     14801     14799     14797     14800     14801
     14800     14801     14803     14804     14800     14801     14803     14805
     14800     14801     14803     14850     14801     14803     14850     14851
     14801     14803     14850     14852     14801     14803     14850     14853
     14802     14801     14803     14804     14802     14801     14803     14805
     14802     14801     14803     14850     14803     14850     14853     14854
     14803     14850     14853     14855     14803     14850     14853     14856
     14804     14803     14850     14851     14804     14803     14850     14852
     14804     14803     14850     14853     14805     14803     14850     14851
     14805     14803     14850     14852     14805     14803     14850     14853
     14806     14809     14812     14813     14806     14809     14812     14814
     14806     14809     14812     14815     14807     14806     14809     14810
     14807     14806     14809     14811     14807     14806     14809     14812
     14808     14806     14809     14810     14808     14806     14809     14811
     14808     14806     14809     14812     14809     14812     14815     14816
     14809     14812     14815     14817     14809     14812     14815     14818
     14810     14809     14812     14813     14810     14809     14812     14814
     14810     14809     14812     14815     14811     14809     14812     14813
     14811     14809     14812     14814     14811     14809     14812     14815
     14812     14815     14818     14819     14812     14815     14818     14820
     14812     14815     14818     14821     14813     14812     14815     14816
     14813     14812     14815     14817     14813     14812     14815     14818
     14814     14812     14815     14816     14814     14812     14815     14817
     14814     14812     14815     14818     14815     14818     14821     14822
     14815     14818     14821     14823     14815     14818     14821     14824
     14816     14815     14818     14819     14816     14815     14818     14820
     14816     14815     14818     14821     14817     14815     14818     14819
     14817     14815     14818     14820     14817     14815     14818     14821
     14818     14821     14824     14825     14818     14821     14824     14826
     14818     14821     14824     14829     14819     14818     14821     14822
     14819     14818     14821     14823     14819     14818     14821     14824
     14820     14818     14821     14822     14820     14818     14821     14823
     14820     14818     14821     14824     14821     14824     14826     14827
     14821     14824     14826     14828     14821     14824     14826     14829
     14821     14824     14829     14826     14821     14824     14829     14830
     14821     14824     14829     14831     14822     14821     14824     14825
     14822     14821     14824     14826     14822     14821     14824     14829
     14823     14821     14824     14825     14823     14821     14824     14826
     14823     14821     14824     14829     14824     14826     14829     14830
     14824     14826     14829     14831     14824     14829     14826     14827
     14824     14829     14826     14828     14824     14829     14831     14832
     14824     14829     14831     14833     14824     14829     14831     14834
     14825     14824     14826     14827     14825     14824     14826     14828
     14825     14824     14826     14829     14825     14824     14829     14826
     14825     14824     14829     14830     14825     14824     14829     14831
     14826     14824     14829     14830     14826     14824     14829     14831
     14826     14829     14831     14832     14826     14829     14831     14833
     14826     14829     14831     14834     14827     14826     14824     14829
     14827     14826     14829     14830     14827     14826     14829     14831
     14828     14826     14824     14829     14828     14826     14829     14830
     14828     14826     14829     14831     14829     14831     14834     14835
     14829     14831     14834     14836     14829     14831     14834     14837
     14830     14829     14831     14832     14830     14829     14831     14833
     14830     14829     14831     14834     14831     14834     14837     14838
     14831     14834     14837     14839     14831     14834     14837     14840
     14832     14831     14834     14835     14832     14831     14834     14836
     14832     14831     14834     14837     14833     14831     14834     14835
     14833     14831     14834     14836     14833     14831     14834     14837
     14834     14837     14840     14841     14834     14837     14840     14842
     14834     14837     14840     14843     14835     14834     14837     14838
     14835     14834     14837     14839     14835     14834     14837     14840
     14836     14834     14837     14838     14836     14834     14837     14839
     14836     14834     14837     14840     14837     14840     14843     14844
     14837     14840     14843     14845     14837     14840     14843     14846
     14838     14837     14840     14841     14838     14837     14840     14842
     14838     14837     14840     14843     14839     14837     14840     14841
     14839     14837     14840     14842     14839     14837     14840     14843
     14840     14843     14846     14847     14840     14843     14846     14848
     14840     14843     14846     14849     14841     14840     14843     14844
     14841     14840     14843     14845     14841     14840     14843     14846
     14842     14840     14843     14844     14842     14840     14843     14845
     14842     14840     14843     14846     14844     14843     14846     14847
     14844     14843     14846     14848     14844     14843     14846     14849
     14845     14843     14846     14847     14845     14843     14846     14848
     14845     14843     14846     14849     14850     14853     14856     14857
     14850     14853     14856     14858     14850     14853     14856     14859
     14851     14850     14853     14854     14851     14850     14853     14855
     14851     14850     14853     14856     14852     14850     14853     14854
     14852     14850     14853     14855     14852     14850     14853     14856
     14853     14856     14859     14860     14853     14856     14859     14861
     14853     14856     14859     14862     14854     14853     14856     14857
     14854     14853     14856     14858     14854     14853     14856     14859
     14855     14853     14856     14857     14855     14853     14856     14858
     14855     14853     14856     14859     14856     14859     14862     14863
     14856     14859     14862     14864     14856     14859     14862     14865
     14857     14856     14859     14860     14857     14856     14859     14861
     14857     14856     14859     14862     14858     14856     14859     14860
     14858     14856     14859     14861     14858     14856     14859     14862
     14859     14862     14865     14866     14859     14862     14865     14867
     14859     14862     14865     14868     14860     14859     14862     14863
     14860     14859     14862     14864     14860     14859     14862     14865
     14861     14859     14862     14863     14861     14859     14862     14864
     14861     14859     14862     14865     14862     14865     14868     14869
     14862     14865     14868     14870     14862     14865     14868     14871
     14863     14862     14865     14866     14863     14862     14865     14867
     14863     14862     14865     14868     14864     14862     14865     14866
     14864     14862     14865     14867     14864     14862     14865     14868
     14865     14868     14871     14872     14865     14868     14871     14873
     14865     14868     14871     14874     14866     14865     14868     14869
     14866     14865     14868     14870     14866     14865     14868     14871
     14867     14865     14868     14869     14867     14865     14868     14870
     14867     14865     14868     14871     14868     14871     14874     14875
     14868     14871     14874     14876     14868     14871     14874     14877
     14869     14868     14871     14872     14869     14868     14871     14873
     14869     14868     14871     14874     14870     14868     14871     14872
     14870     14868     14871     14873     14870     14868     14871     14874
     14871     14874     14877     14878     14871     14874     14877     14879
     14871     14874     14877     14880     14872     14871     14874     14875
     14872     14871     14874     14876     14872     14871     14874     14877
     14873     14871     14874     14875     14873     14871     14874     14876
     14873     14871     14874     14877     14874     14877     14880     14881
     14874     14877     14880     14882     14874     14877     14880     14883
     14875     14874     14877     14878     14875     14874     14877     14879
     14875     14874     14877     14880     14876     14874     14877     14878
     14876     14874     14877     14879     14876     14874     14877     14880
     14877     14880     14883     14884     14877     14880     14883     14885
     14877     14880     14883     14886     14878     14877     14880     14881
     14878     14877     14880     14882     14878     14877     14880     14883
     14879     14877     14880     14881     14879     14877     14880     14882
     14879     14877     14880     14883     14880     14883     14886     14887
     14880     14883     14886     14888     14880     14883     14886     14889
     14881     14880     14883     14884     14881     14880     14883     14885
     14881     14880     14883     14886     14882     14880     14883     14884
     14882     14880     14883     14885     14882     14880     14883     14886
     14883     14886     14889     14890     14883     14886     14889     14891
     14883     14886     14889     14892     14884     14883     14886     14887
     14884     14883     14886     14888     14884     14883     14886     14889
     14885     14883     14886     14887     14885     14883     14886     14888
     14885     14883     14886     14889     14887     14886     14889     14890
     14887     14886     14889     14891     14887     14886     14889     14892
     14888     14886     14889     14890     14888     14886     14889     14891
     14888     14886     14889     14892     14893     14898     14900     14901
     14893     14898     14902     14903     14893     14898     14902     14904
     14893     14898     14902     14909     14894     14893     14896     14897
     14894     14893     14898     14899     14894     14893     14898     14900
     14894     14893     14898     14902     14895     14893     14896     14897
     14895     14893     14898     14899     14895     14893     14898     14900
     14895     14893     14898     14902     14896     14893     14898     14899
     14896     14893     14898     14900     14896     14893     14898     14902
     14897     14896     14893     14898     14898     14902     14909     14905
     14899     14898     14900     14901     14899     14898     14902     14903
     14899     14898     14902     14904     14899     14898     14902     14909
     14900     14898     14902     14903     14900     14898     14902     14904
     14900     14898     14902     14909     14901     14900     14898     14902
     14902     14909     14905     14906     14902     14909     14905     14907
     14902     14909     14905     14908     14903     14902     14909     14905
     14904     14902     14909     14905     14905     14908     14910     14911
     14905     14908     14910     14912     14905     14908     14910     14913
     14906     14905     14908     14910     14907     14905     14908     14910
     14908     14910     14913     14914     14908     14910     14913     14915
     14908     14910     14913     14921     14909     14905     14908     14910
     14910     14913     14915     14916     14910     14913     14921     14922
     14910     14913     14921     14923     14910     14913     14921     14924
     14911     14910     14913     14914     14911     14910     14913     14915
     14911     14910     14913     14921     14912     14910     14913     14914
     14912     14910     14913     14915     14912     14910     14913     14921
     14913     14915     14916     14917     14913     14915     14916     14918
     14913     14921     14924     14925     14914     14913     14915     14916
     14914     14913     14921     14922     14914     14913     14921     14923
     14914     14913     14921     14924     14915     14913     14921     14922
     14915     14913     14921     14923     14915     14913     14921     14924
     14915     14916     14918     14919     14915     14916     14918     14920
     14915     14916     14918     14930     14916     14915     14913     14921
     14916     14918     14930     14931     14916     14918     14930     14932
     14916     14918     14930     14933     14917     14916     14918     14919
     14917     14916     14918     14920     14917     14916     14918     14930
     14918     14930     14933     14934     14918     14930     14933     14935
     14918     14930     14933     14936     14919     14918     14930     14931
     14919     14918     14930     14932     14919     14918     14930     14933
     14920     14918     14930     14931     14920     14918     14930     14932
     14920     14918     14930     14933     14921     14924     14925     14926
     14921     14924     14925     14927     14922     14921     14924     14925
     14923     14921     14924     14925     14924     14925     14927     14928
     14924     14925     14927     14929     14924     14925     14927     14974
     14925     14927     14974     14975     14925     14927     14974     14976
     14925     14927     14974     14977     14926     14925     14927     14928
     14926     14925     14927     14929     14926     14925     14927     14974
     14927     14974     14977     14978     14927     14974     14977     14979
     14927     14974     14977     14980     14928     14927     14974     14975
     14928     14927     14974     14976     14928     14927     14974     14977
     14929     14927     14974     14975     14929     14927     14974     14976
     14929     14927     14974     14977     14930     14933     14936     14937
     14930     14933     14936     14938     14930     14933     14936     14939
     14931     14930     14933     14934     14931     14930     14933     14935
     14931     14930     14933     14936     14932     14930     14933     14934
     14932     14930     14933     14935     14932     14930     14933     14936
     14933     14936     14939     14940     14933     14936     14939     14941
     14933     14936     14939     14942     14934     14933     14936     14937
     14934     14933     14936     14938     14934     14933     14936     14939
     14935     14933     14936     14937     14935     14933     14936     14938
     14935     14933     14936     14939     14936     14939     14942     14943
     14936     14939     14942     14944     14936     14939     14942     14945
     14937     14936     14939     14940     14937     14936     14939     14941
     14937     14936     14939     14942     14938     14936     14939     14940
     14938     14936     14939     14941     14938     14936     14939     14942
     14939     14942     14945     14946     14939     14942     14945     14947
     14939     14942     14945     14948     14940     14939     14942     14943
     14940     14939     14942     14944     14940     14939     14942     14945
     14941     14939     14942     14943     14941     14939     14942     14944
     14941     14939     14942     14945     14942     14945     14948     14949
     14942     14945     14948     14950     14942     14945     14948     14953
     14943     14942     14945     14946     14943     14942     14945     14947
     14943     14942     14945     14948     14944     14942     14945     14946
     14944     14942     14945     14947     14944     14942     14945     14948
     14945     14948     14950     14951     14945     14948     14950     14952
     14945     14948     14950     14953     14945     14948     14953     14950
     14945     14948     14953     14954     14945     14948     14953     14955
     14946     14945     14948     14949     14946     14945     14948     14950
     14946     14945     14948     14953     14947     14945     14948     14949
     14947     14945     14948     14950     14947     14945     14948     14953
     14948     14950     14953     14954     14948     14950     14953     14955
     14948     14953     14950     14951     14948     14953     14950     14952
     14948     14953     14955     14956     14948     14953     14955     14957
     14948     14953     14955     14958     14949     14948     14950     14951
     14949     14948     14950     14952     14949     14948     14950     14953
     14949     14948     14953     14950     14949     14948     14953     14954
     14949     14948     14953     14955     14950     14948     14953     14954
     14950     14948     14953     14955     14950     14953     14955     14956
     14950     14953     14955     14957     14950     14953     14955     14958
     14951     14950     14948     14953     14951     14950     14953     14954
     14951     14950     14953     14955     14952     14950     14948     14953
     14952     14950     14953     14954     14952     14950     14953     14955
     14953     14955     14958     14959     14953     14955     14958     14960
     14953     14955     14958     14961     14954     14953     14955     14956
     14954     14953     14955     14957     14954     14953     14955     14958
     14955     14958     14961     14962     14955     14958     14961     14963
     14955     14958     14961     14964     14956     14955     14958     14959
     14956     14955     14958     14960     14956     14955     14958     14961
     14957     14955     14958     14959     14957     14955     14958     14960
     14957     14955     14958     14961     14958     14961     14964     14965
     14958     14961     14964     14966     14958     14961     14964     14967
     14959     14958     14961     14962     14959     14958     14961     14963
     14959     14958     14961     14964     14960     14958     14961     14962
     14960     14958     14961     14963     14960     14958     14961     14964
     14961     14964     14967     14968     14961     14964     14967     14969
     14961     14964     14967     14970     14962     14961     14964     14965
     14962     14961     14964     14966     14962     14961     14964     14967
     14963     14961     14964     14965     14963     14961     14964     14966
     14963     14961     14964     14967     14964     14967     14970     14971
     14964     14967     14970     14972     14964     14967     14970     14973
     14965     14964     14967     14968     14965     14964     14967     14969
     14965     14964     14967     14970     14966     14964     14967     14968
     14966     14964     14967     14969     14966     14964     14967     14970
     14968     14967     14970     14971     14968     14967     14970     14972
     14968     14967     14970     14973     14969     14967     14970     14971
     14969     14967     14970     14972     14969     14967     14970     14973
     14974     14977     14980     14981     14974     14977     14980     14982
     14974     14977     14980     14983     14975     14974     14977     14978
     14975     14974     14977     14979     14975     14974     14977     14980
     14976     14974     14977     14978     14976     14974     14977     14979
     14976     14974     14977     14980     14977     14980     14983     14984
     14977     14980     14983     14985     14977     14980     14983     14986
     14978     14977     14980     14981     14978     14977     14980     14982
     14978     14977     14980     14983     14979     14977     14980     14981
     14979     14977     14980     14982     14979     14977     14980     14983
     14980     14983     14986     14987     14980     14983     14986     14988
     14980     14983     14986     14989     14981     14980     14983     14984
     14981     14980     14983     14985     14981     14980     14983     14986
     14982     14980     14983     14984     14982     14980     14983     14985
     14982     14980     14983     14986     14983     14986     14989     14990
     14983     14986     14989     14991     14983     14986     14989     14992
     14984     14983     14986     14987     14984     14983     14986     14988
     14984     14983     14986     14989     14985     14983     14986     14987
     14985     14983     14986     14988     14985     14983     14986     14989
     14986     14989     14992     14993     14986     14989     14992     14994
     14986     14989     14992     14995     14987     14986     14989     14990
     14987     14986     14989     14991     14987     14986     14989     14992
     14988     14986     14989     14990     14988     14986     14989     14991
     14988     14986     14989     14992     14989     14992     14995     14996
     14989     14992     14995     14997     14989     14992     14995     14998
     14990     14989     14992     14993     14990     14989     14992     14994
     14990     14989     14992     14995     14991     14989     14992     14993
     14991     14989     14992     14994     14991     14989     14992     14995
     14992     14995     14998     14999     14992     14995     14998     15000
     14992     14995     14998     15001     14993     14992     14995     14996
     14993     14992     14995     14997     14993     14992     14995     14998
     14994     14992     14995     14996     14994     14992     14995     14997
     14994     14992     14995     14998     14995     14998     15001     15002
     14995     14998     15001     15003     14995     14998     15001     15004
     14996     14995     14998     14999     14996     14995     14998     15000
     14996     14995     14998     15001     14997     14995     14998     14999
     14997     14995     14998     15000     14997     14995     14998     15001
     14998     15001     15004     15005     14998     15001     15004     15006
     14998     15001     15004     15007     14999     14998     15001     15002
     14999     14998     15001     15003     14999     14998     15001     15004
     15000     14998     15001     15002     15000     14998     15001     15003
     15000     14998     15001     15004     15001     15004     15007     15008
     15001     15004     15007     15009     15001     15004     15007     15010
     15002     15001     15004     15005     15002     15001     15004     15006
     15002     15001     15004     15007     15003     15001     15004     15005
     15003     15001     15004     15006     15003     15001     15004     15007
     15004     15007     15010     15011     15004     15007     15010     15012
     15004     15007     15010     15013     15005     15004     15007     15008
     15005     15004     15007     15009     15005     15004     15007     15010
     15006     15004     15007     15008     15006     15004     15007     15009
     15006     15004     15007     15010     15007     15010     15013     15014
     15007     15010     15013     15015     15007     15010     15013     15016
     15008     15007     15010     15011     15008     15007     15010     15012
     15008     15007     15010     15013     15009     15007     15010     15011
     15009     15007     15010     15012     15009     15007     15010     15013
     15011     15010     15013     15014     15011     15010     15013     15015
     15011     15010     15013     15016     15012     15010     15013     15014
     15012     15010     15013     15015     15012     15010     15013     15016
     15017     15021     15024     15025     15017     15021     15024     15026
     15017     15021     15024     15031     15018     15017     15021     15022
     15018     15017     15021     15023     15018     15017     15021     15024
     15019     15017     15021     15022     15019     15017     15021     15023
     15019     15017     15021     15024     15020     15017     15021     15022
     15020     15017     15021     15023     15020     15017     15021     15024
     15021     15024     15031     15027     15022     15021     15024     15025
     15022     15021     15024     15026     15022     15021     15024     15031
     15023     15021     15024     15025     15023     15021     15024     15026
     15023     15021     15024     15031     15024     15031     15027     15028
     15024     15031     15027     15029     15024     15031     15027     15030
     15025     15024     15031     15027     15026     15024     15031     15027
     15027     15030     15032     15033     15027     15030     15032     15034
     15027     15030     15032     15035     15028     15027     15030     15032
     15029     15027     15030     15032     15030     15032     15035     15036
     15030     15032     15035     15037     15030     15032     15035     15043
     15031     15027     15030     15032     15032     15035     15037     15038
     15032     15035     15043     15044     15032     15035     15043     15045
     15032     15035     15043     15046     15033     15032     15035     15036
     15033     15032     15035     15037     15033     15032     15035     15043
     15034     15032     15035     15036     15034     15032     15035     15037
     15034     15032     15035     15043     15035     15037     15038     15039
     15035     15037     15038     15040     15035     15043     15046     15047
     15036     15035     15037     15038     15036     15035     15043     15044
     15036     15035     15043     15045     15036     15035     15043     15046
     15037     15035     15043     15044     15037     15035     15043     15045
     15037     15035     15043     15046     15037     15038     15040     15041
     15037     15038     15040     15042     15037     15038     15040     15052
     15038     15037     15035     15043     15038     15040     15052     15053
     15038     15040     15052     15054     15038     15040     15052     15055
     15039     15038     15040     15041     15039     15038     15040     15042
     15039     15038     15040     15052     15040     15052     15055     15056
     15040     15052     15055     15057     15040     15052     15055     15058
     15041     15040     15052     15053     15041     15040     15052     15054
     15041     15040     15052     15055     15042     15040     15052     15053
     15042     15040     15052     15054     15042     15040     15052     15055
     15043     15046     15047     15048     15043     15046     15047     15049
     15044     15043     15046     15047     15045     15043     15046     15047
     15046     15047     15049     15050     15046     15047     15049     15051
     15046     15047     15049     15096     15047     15049     15096     15097
     15047     15049     15096     15098     15047     15049     15096     15099
     15048     15047     15049     15050     15048     15047     15049     15051
     15048     15047     15049     15096     15049     15096     15099     15100
     15049     15096     15099     15101     15049     15096     15099     15102
     15050     15049     15096     15097     15050     15049     15096     15098
     15050     15049     15096     15099     15051     15049     15096     15097
     15051     15049     15096     15098     15051     15049     15096     15099
     15052     15055     15058     15059     15052     15055     15058     15060
     15052     15055     15058     15061     15053     15052     15055     15056
     15053     15052     15055     15057     15053     15052     15055     15058
     15054     15052     15055     15056     15054     15052     15055     15057
     15054     15052     15055     15058     15055     15058     15061     15062
     15055     15058     15061     15063     15055     15058     15061     15064
     15056     15055     15058     15059     15056     15055     15058     15060
     15056     15055     15058     15061     15057     15055     15058     15059
     15057     15055     15058     15060     15057     15055     15058     15061
     15058     15061     15064     15065     15058     15061     15064     15066
     15058     15061     15064     15067     15059     15058     15061     15062
     15059     15058     15061     15063     15059     15058     15061     15064
     15060     15058     15061     15062     15060     15058     15061     15063
     15060     15058     15061     15064     15061     15064     15067     15068
     15061     15064     15067     15069     15061     15064     15067     15070
     15062     15061     15064     15065     15062     15061     15064     15066
     15062     15061     15064     15067     15063     15061     15064     15065
     15063     15061     15064     15066     15063     15061     15064     15067
     15064     15067     15070     15071     15064     15067     15070     15072
     15064     15067     15070     15075     15065     15064     15067     15068
     15065     15064     15067     15069     15065     15064     15067     15070
     15066     15064     15067     15068     15066     15064     15067     15069
     15066     15064     15067     15070     15067     15070     15072     15073
     15067     15070     15072     15074     15067     15070     15072     15075
     15067     15070     15075     15072     15067     15070     15075     15076
     15067     15070     15075     15077     15068     15067     15070     15071
     15068     15067     15070     15072     15068     15067     15070     15075
     15069     15067     15070     15071     15069     15067     15070     15072
     15069     15067     15070     15075     15070     15072     15075     15076
     15070     15072     15075     15077     15070     15075     15072     15073
     15070     15075     15072     15074     15070     15075     15077     15078
     15070     15075     15077     15079     15070     15075     15077     15080
     15071     15070     15072     15073     15071     15070     15072     15074
     15071     15070     15072     15075     15071     15070     15075     15072
     15071     15070     15075     15076     15071     15070     15075     15077
     15072     15070     15075     15076     15072     15070     15075     15077
     15072     15075     15077     15078     15072     15075     15077     15079
     15072     15075     15077     15080     15073     15072     15070     15075
     15073     15072     15075     15076     15073     15072     15075     15077
     15074     15072     15070     15075     15074     15072     15075     15076
     15074     15072     15075     15077     15075     15077     15080     15081
     15075     15077     15080     15082     15075     15077     15080     15083
     15076     15075     15077     15078     15076     15075     15077     15079
     15076     15075     15077     15080     15077     15080     15083     15084
     15077     15080     15083     15085     15077     15080     15083     15086
     15078     15077     15080     15081     15078     15077     15080     15082
     15078     15077     15080     15083     15079     15077     15080     15081
     15079     15077     15080     15082     15079     15077     15080     15083
     15080     15083     15086     15087     15080     15083     15086     15088
     15080     15083     15086     15089     15081     15080     15083     15084
     15081     15080     15083     15085     15081     15080     15083     15086
     15082     15080     15083     15084     15082     15080     15083     15085
     15082     15080     15083     15086     15083     15086     15089     15090
     15083     15086     15089     15091     15083     15086     15089     15092
     15084     15083     15086     15087     15084     15083     15086     15088
     15084     15083     15086     15089     15085     15083     15086     15087
     15085     15083     15086     15088     15085     15083     15086     15089
     15086     15089     15092     15093     15086     15089     15092     15094
     15086     15089     15092     15095     15087     15086     15089     15090
     15087     15086     15089     15091     15087     15086     15089     15092
     15088     15086     15089     15090     15088     15086     15089     15091
     15088     15086     15089     15092     15090     15089     15092     15093
     15090     15089     15092     15094     15090     15089     15092     15095
     15091     15089     15092     15093     15091     15089     15092     15094
     15091     15089     15092     15095     15096     15099     15102     15103
     15096     15099     15102     15104     15096     15099     15102     15105
     15097     15096     15099     15100     15097     15096     15099     15101
     15097     15096     15099     15102     15098     15096     15099     15100
     15098     15096     15099     15101     15098     15096     15099     15102
     15099     15102     15105     15106     15099     15102     15105     15107
     15099     15102     15105     15108     15100     15099     15102     15103
     15100     15099     15102     15104     15100     15099     15102     15105
     15101     15099     15102     15103     15101     15099     15102     15104
     15101     15099     15102     15105     15102     15105     15108     15109
     15102     15105     15108     15110     15102     15105     15108     15111
     15103     15102     15105     15106     15103     15102     15105     15107
     15103     15102     15105     15108     15104     15102     15105     15106
     15104     15102     15105     15107     15104     15102     15105     15108
     15105     15108     15111     15112     15105     15108     15111     15113
     15105     15108     15111     15114     15106     15105     15108     15109
     15106     15105     15108     15110     15106     15105     15108     15111
     15107     15105     15108     15109     15107     15105     15108     15110
     15107     15105     15108     15111     15108     15111     15114     15115
     15108     15111     15114     15116     15108     15111     15114     15117
     15109     15108     15111     15112     15109     15108     15111     15113
     15109     15108     15111     15114     15110     15108     15111     15112
     15110     15108     15111     15113     15110     15108     15111     15114
     15111     15114     15117     15118     15111     15114     15117     15119
     15111     15114     15117     15120     15112     15111     15114     15115
     15112     15111     15114     15116     15112     15111     15114     15117
     15113     15111     15114     15115     15113     15111     15114     15116
     15113     15111     15114     15117     15114     15117     15120     15121
     15114     15117     15120     15122     15114     15117     15120     15123
     15115     15114     15117     15118     15115     15114     15117     15119
     15115     15114     15117     15120     15116     15114     15117     15118
     15116     15114     15117     15119     15116     15114     15117     15120
     15117     15120     15123     15124     15117     15120     15123     15125
     15117     15120     15123     15126     15118     15117     15120     15121
     15118     15117     15120     15122     15118     15117     15120     15123
     15119     15117     15120     15121     15119     15117     15120     15122
     15119     15117     15120     15123     15120     15123     15126     15127
     15120     15123     15126     15128     15120     15123     15126     15129
     15121     15120     15123     15124     15121     15120     15123     15125
     15121     15120     15123     15126     15122     15120     15123     15124
     15122     15120     15123     15125     15122     15120     15123     15126
     15123     15126     15129     15130     15123     15126     15129     15131
     15123     15126     15129     15132     15124     15123     15126     15127
     15124     15123     15126     15128     15124     15123     15126     15129
     15125     15123     15126     15127     15125     15123     15126     15128
     15125     15123     15126     15129     15126     15129     15132     15133
     15126     15129     15132     15134     15126     15129     15132     15135
     15127     15126     15129     15130     15127     15126     15129     15131
     15127     15126     15129     15132     15128     15126     15129     15130
     15128     15126     15129     15131     15128     15126     15129     15132
     15129     15132     15135     15136     15129     15132     15135     15137
     15129     15132     15135     15138     15130     15129     15132     15133
     15130     15129     15132     15134     15130     15129     15132     15135
     15131     15129     15132     15133     15131     15129     15132     15134
     15131     15129     15132     15135     15133     15132     15135     15136
     15133     15132     15135     15137     15133     15132     15135     15138
     15134     15132     15135     15136     15134     15132     15135     15137
     15134     15132     15135     15138     15139     15143     15146     15147
     15139     15143     15146     15148     15139     15143     15146     15153
     15140     15139     15143     15144     15140     15139     15143     15145
     15140     15139     15143     15146     15141     15139     15143     15144
     15141     15139     15143     15145     15141     15139     15143     15146
     15142     15139     15143     15144     15142     15139     15143     15145
     15142     15139     15143     15146     15143     15146     15153     15149
     15144     15143     15146     15147     15144     15143     15146     15148
     15144     15143     15146     15153     15145     15143     15146     15147
     15145     15143     15146     15148     15145     15143     15146     15153
     15146     15153     15149     15150     15146     15153     15149     15151
     15146     15153     15149     15152     15147     15146     15153     15149
     15148     15146     15153     15149     15149     15152     15154     15155
     15149     15152     15154     15156     15149     15152     15154     15157
     15150     15149     15152     15154     15151     15149     15152     15154
     15152     15154     15157     15158     15152     15154     15157     15159
     15152     15154     15157     15165     15153     15149     15152     15154
     15154     15157     15159     15160     15154     15157     15165     15166
     15154     15157     15165     15167     15154     15157     15165     15168
     15155     15154     15157     15158     15155     15154     15157     15159
     15155     15154     15157     15165     15156     15154     15157     15158
     15156     15154     15157     15159     15156     15154     15157     15165
     15157     15159     15160     15161     15157     15159     15160     15162
     15157     15165     15168     15169     15158     15157     15159     15160
     15158     15157     15165     15166     15158     15157     15165     15167
     15158     15157     15165     15168     15159     15157     15165     15166
     15159     15157     15165     15167     15159     15157     15165     15168
     15159     15160     15162     15163     15159     15160     15162     15164
     15159     15160     15162     15174     15160     15159     15157     15165
     15160     15162     15174     15175     15160     15162     15174     15176
     15160     15162     15174     15177     15161     15160     15162     15163
     15161     15160     15162     15164     15161     15160     15162     15174
     15162     15174     15177     15178     15162     15174     15177     15179
     15162     15174     15177     15180     15163     15162     15174     15175
     15163     15162     15174     15176     15163     15162     15174     15177
     15164     15162     15174     15175     15164     15162     15174     15176
     15164     15162     15174     15177     15165     15168     15169     15170
     15165     15168     15169     15171     15166     15165     15168     15169
     15167     15165     15168     15169     15168     15169     15171     15172
     15168     15169     15171     15173     15168     15169     15171     15215
     15169     15171     15215     15216     15169     15171     15215     15217
     15169     15171     15215     15218     15170     15169     15171     15172
     15170     15169     15171     15173     15170     15169     15171     15215
     15171     15215     15218     15219     15171     15215     15218     15220
     15171     15215     15218     15221     15172     15171     15215     15216
     15172     15171     15215     15217     15172     15171     15215     15218
     15173     15171     15215     15216     15173     15171     15215     15217
     15173     15171     15215     15218     15174     15177     15180     15181
     15174     15177     15180     15182     15174     15177     15180     15183
     15175     15174     15177     15178     15175     15174     15177     15179
     15175     15174     15177     15180     15176     15174     15177     15178
     15176     15174     15177     15179     15176     15174     15177     15180
     15177     15180     15183     15184     15177     15180     15183     15185
     15177     15180     15183     15186     15178     15177     15180     15181
     15178     15177     15180     15182     15178     15177     15180     15183
     15179     15177     15180     15181     15179     15177     15180     15182
     15179     15177     15180     15183     15180     15183     15186     15187
     15180     15183     15186     15188     15180     15183     15186     15189
     15181     15180     15183     15184     15181     15180     15183     15185
     15181     15180     15183     15186     15182     15180     15183     15184
     15182     15180     15183     15185     15182     15180     15183     15186
     15183     15186     15189     15190     15183     15186     15189     15191
     15183     15186     15189     15192     15184     15183     15186     15187
     15184     15183     15186     15188     15184     15183     15186     15189
     15185     15183     15186     15187     15185     15183     15186     15188
     15185     15183     15186     15189     15186     15189     15192     15193
     15186     15189     15192     15194     15187     15186     15189     15190
     15187     15186     15189     15191     15187     15186     15189     15192
     15188     15186     15189     15190     15188     15186     15189     15191
     15188     15186     15189     15192     15189     15192     15194     15195
     15189     15192     15194     15196     15190     15189     15192     15193
     15190     15189     15192     15194     15191     15189     15192     15193
     15191     15189     15192     15194     15192     15194     15196     15197
     15192     15194     15196     15198     15192     15194     15196     15199
     15193     15192     15194     15195     15193     15192     15194     15196
     15194     15196     15199     15200     15194     15196     15199     15201
     15194     15196     15199     15202     15195     15194     15196     15197
     15195     15194     15196     15198     15195     15194     15196     15199
     15196     15199     15202     15203     15196     15199     15202     15204
     15196     15199     15202     15205     15197     15196     15199     15200
     15197     15196     15199     15201     15197     15196     15199     15202
     15198     15196     15199     15200     15198     15196     15199     15201
     15198     15196     15199     15202     15199     15202     15205     15206
     15199     15202     15205     15207     15199     15202     15205     15208
     15200     15199     15202     15203     15200     15199     15202     15204
     15200     15199     15202     15205     15201     15199     15202     15203
     15201     15199     15202     15204     15201     15199     15202     15205
     15202     15205     15208     15209     15202     15205     15208     15210
     15202     15205     15208     15211     15203     15202     15205     15206
     15203     15202     15205     15207     15203     15202     15205     15208
     15204     15202     15205     15206     15204     15202     15205     15207
     15204     15202     15205     15208     15205     15208     15211     15212
     15205     15208     15211     15213     15205     15208     15211     15214
     15206     15205     15208     15209     15206     15205     15208     15210
     15206     15205     15208     15211     15207     15205     15208     15209
     15207     15205     15208     15210     15207     15205     15208     15211
     15209     15208     15211     15212     15209     15208     15211     15213
     15209     15208     15211     15214     15210     15208     15211     15212
     15210     15208     15211     15213     15210     15208     15211     15214
     15215     15218     15221     15222     15215     15218     15221     15223
     15215     15218     15221     15224     15216     15215     15218     15219
     15216     15215     15218     15220     15216     15215     15218     15221
     15217     15215     15218     15219     15217     15215     15218     15220
     15217     15215     15218     15221     15218     15221     15224     15225
     15218     15221     15224     15226     15218     15221     15224     15227
     15219     15218     15221     15222     15219     15218     15221     15223
     15219     15218     15221     15224     15220     15218     15221     15222
     15220     15218     15221     15223     15220     15218     15221     15224
     15221     15224     15227     15228     15221     15224     15227     15229
     15221     15224     15227     15230     15222     15221     15224     15225
     15222     15221     15224     15226     15222     15221     15224     15227
     15223     15221     15224     15225     15223     15221     15224     15226
     15223     15221     15224     15227     15224     15227     15230     15231
     15224     15227     15230     15232     15224     15227     15230     15233
     15225     15224     15227     15228     15225     15224     15227     15229
     15225     15224     15227     15230     15226     15224     15227     15228
     15226     15224     15227     15229     15226     15224     15227     15230
     15227     15230     15233     15234     15227     15230     15233     15235
     15228     15227     15230     15231     15228     15227     15230     15232
     15228     15227     15230     15233     15229     15227     15230     15231
     15229     15227     15230     15232     15229     15227     15230     15233
     15230     15233     15235     15236     15230     15233     15235     15237
     15231     15230     15233     15234     15231     15230     15233     15235
     15232     15230     15233     15234     15232     15230     15233     15235
     15233     15235     15237     15238     15233     15235     15237     15239
     15233     15235     15237     15240     15234     15233     15235     15236
     15234     15233     15235     15237     15235     15237     15240     15241
     15235     15237     15240     15242     15235     15237     15240     15243
     15236     15235     15237     15238     15236     15235     15237     15239
     15236     15235     15237     15240     15237     15240     15243     15244
     15237     15240     15243     15245     15237     15240     15243     15246
     15238     15237     15240     15241     15238     15237     15240     15242
     15238     15237     15240     15243     15239     15237     15240     15241
     15239     15237     15240     15242     15239     15237     15240     15243
     15240     15243     15246     15247     15240     15243     15246     15248
     15240     15243     15246     15249     15241     15240     15243     15244
     15241     15240     15243     15245     15241     15240     15243     15246
     15242     15240     15243     15244     15242     15240     15243     15245
     15242     15240     15243     15246     15243     15246     15249     15250
     15243     15246     15249     15251     15243     15246     15249     15252
     15244     15243     15246     15247     15244     15243     15246     15248
     15244     15243     15246     15249     15245     15243     15246     15247
     15245     15243     15246     15248     15245     15243     15246     15249
     15246     15249     15252     15253     15246     15249     15252     15254
     15246     15249     15252     15255     15247     15246     15249     15250
     15247     15246     15249     15251     15247     15246     15249     15252
     15248     15246     15249     15250     15248     15246     15249     15251
     15248     15246     15249     15252     15249     15252     15255     15256
     15249     15252     15255     15257     15249     15252     15255     15258
     15250     15249     15252     15253     15250     15249     15252     15254
     15250     15249     15252     15255     15251     15249     15252     15253
     15251     15249     15252     15254     15251     15249     15252     15255
     15252     15255     15258     15259     15252     15255     15258     15260
     15252     15255     15258     15261     15253     15252     15255     15256
     15253     15252     15255     15257     15253     15252     15255     15258
     15254     15252     15255     15256     15254     15252     15255     15257
     15254     15252     15255     15258     15256     15255     15258     15259
     15256     15255     15258     15260     15256     15255     15258     15261
     15257     15255     15258     15259     15257     15255     15258     15260
     15257     15255     15258     15261     15262     15266     15269     15270
     15262     15266     15269     15271     15262     15266     15269     15276
     15263     15262     15266     15267     15263     15262     15266     15268
     15263     15262     15266     15269     15264     15262     15266     15267
     15264     15262     15266     15268     15264     15262     15266     15269
     15265     15262     15266     15267     15265     15262     15266     15268
     15265     15262     15266     15269     15266     15269     15276     15272
     15267     15266     15269     15270     15267     15266     15269     15271
     15267     15266     15269     15276     15268     15266     15269     15270
     15268     15266     15269     15271     15268     15266     15269     15276
     15269     15276     15272     15273     15269     15276     15272     15274
     15269     15276     15272     15275     15270     15269     15276     15272
     15271     15269     15276     15272     15272     15275     15277     15278
     15272     15275     15277     15279     15272     15275     15277     15280
     15273     15272     15275     15277     15274     15272     15275     15277
     15275     15277     15280     15281     15275     15277     15280     15282
     15275     15277     15280     15288     15276     15272     15275     15277
     15277     15280     15282     15283     15277     15280     15288     15289
     15277     15280     15288     15290     15277     15280     15288     15291
     15278     15277     15280     15281     15278     15277     15280     15282
     15278     15277     15280     15288     15279     15277     15280     15281
     15279     15277     15280     15282     15279     15277     15280     15288
     15280     15282     15283     15284     15280     15282     15283     15285
     15280     15288     15291     15292     15281     15280     15282     15283
     15281     15280     15288     15289     15281     15280     15288     15290
     15281     15280     15288     15291     15282     15280     15288     15289
     15282     15280     15288     15290     15282     15280     15288     15291
     15282     15283     15285     15286     15282     15283     15285     15287
     15282     15283     15285     15297     15283     15282     15280     15288
     15283     15285     15297     15298     15283     15285     15297     15299
     15283     15285     15297     15300     15284     15283     15285     15286
     15284     15283     15285     15287     15284     15283     15285     15297
     15285     15297     15300     15301     15285     15297     15300     15302
     15285     15297     15300     15303     15286     15285     15297     15298
     15286     15285     15297     15299     15286     15285     15297     15300
     15287     15285     15297     15298     15287     15285     15297     15299
     15287     15285     15297     15300     15288     15291     15292     15293
     15288     15291     15292     15294     15289     15288     15291     15292
     15290     15288     15291     15292     15291     15292     15294     15295
     15291     15292     15294     15296     15291     15292     15294     15344
     15292     15294     15344     15345     15292     15294     15344     15346
     15292     15294     15344     15347     15293     15292     15294     15295
     15293     15292     15294     15296     15293     15292     15294     15344
     15294     15344     15347     15348     15294     15344     15347     15349
     15294     15344     15347     15350     15295     15294     15344     15345
     15295     15294     15344     15346     15295     15294     15344     15347
     15296     15294     15344     15345     15296     15294     15344     15346
     15296     15294     15344     15347     15297     15300     15303     15304
     15297     15300     15303     15305     15297     15300     15303     15306
     15298     15297     15300     15301     15298     15297     15300     15302
     15298     15297     15300     15303     15299     15297     15300     15301
     15299     15297     15300     15302     15299     15297     15300     15303
     15300     15303     15306     15307     15300     15303     15306     15308
     15300     15303     15306     15309     15301     15300     15303     15304
     15301     15300     15303     15305     15301     15300     15303     15306
     15302     15300     15303     15304     15302     15300     15303     15305
     15302     15300     15303     15306     15303     15306     15309     15310
     15303     15306     15309     15311     15303     15306     15309     15312
     15304     15303     15306     15307     15304     15303     15306     15308
     15304     15303     15306     15309     15305     15303     15306     15307
     15305     15303     15306     15308     15305     15303     15306     15309
     15306     15309     15312     15313     15306     15309     15312     15314
     15306     15309     15312     15315     15307     15306     15309     15310
     15307     15306     15309     15311     15307     15306     15309     15312
     15308     15306     15309     15310     15308     15306     15309     15311
     15308     15306     15309     15312     15309     15312     15315     15316
     15309     15312     15315     15317     15310     15309     15312     15313
     15310     15309     15312     15314     15310     15309     15312     15315
     15311     15309     15312     15313     15311     15309     15312     15314
     15311     15309     15312     15315     15312     15315     15317     15318
     15312     15315     15317     15319     15313     15312     15315     15316
     15313     15312     15315     15317     15314     15312     15315     15316
     15314     15312     15315     15317     15315     15317     15319     15320
     15315     15317     15319     15321     15315     15317     15319     15322
     15316     15315     15317     15318     15316     15315     15317     15319
     15317     15319     15322     15323     15317     15319     15322     15324
     15317     15319     15322     15325     15318     15317     15319     15320
     15318     15317     15319     15321     15318     15317     15319     15322
     15319     15322     15325     15326     15319     15322     15325     15327
     15319     15322     15325     15328     15320     15319     15322     15323
     15320     15319     15322     15324     15320     15319     15322     15325
     15321     15319     15322     15323     15321     15319     15322     15324
     15321     15319     15322     15325     15322     15325     15328     15329
     15322     15325     15328     15330     15322     15325     15328     15331
     15323     15322     15325     15326     15323     15322     15325     15327
     15323     15322     15325     15328     15324     15322     15325     15326
     15324     15322     15325     15327     15324     15322     15325     15328
     15325     15328     15331     15332     15325     15328     15331     15333
     15325     15328     15331     15334     15326     15325     15328     15329
     15326     15325     15328     15330     15326     15325     15328     15331
     15327     15325     15328     15329     15327     15325     15328     15330
     15327     15325     15328     15331     15328     15331     15334     15335
     15328     15331     15334     15336     15328     15331     15334     15337
     15329     15328     15331     15332     15329     15328     15331     15333
     15329     15328     15331     15334     15330     15328     15331     15332
     15330     15328     15331     15333     15330     15328     15331     15334
     15331     15334     15337     15338     15331     15334     15337     15339
     15331     15334     15337     15340     15332     15331     15334     15335
     15332     15331     15334     15336     15332     15331     15334     15337
     15333     15331     15334     15335     15333     15331     15334     15336
     15333     15331     15334     15337     15334     15337     15340     15341
     15334     15337     15340     15342     15334     15337     15340     15343
     15335     15334     15337     15338     15335     15334     15337     15339
     15335     15334     15337     15340     15336     15334     15337     15338
     15336     15334     15337     15339     15336     15334     15337     15340
     15338     15337     15340     15341     15338     15337     15340     15342
     15338     15337     15340     15343     15339     15337     15340     15341
     15339     15337     15340     15342     15339     15337     15340     15343
     15344     15347     15350     15351     15344     15347     15350     15352
     15344     15347     15350     15353     15345     15344     15347     15348
     15345     15344     15347     15349     15345     15344     15347     15350
     15346     15344     15347     15348     15346     15344     15347     15349
     15346     15344     15347     15350     15347     15350     15353     15354
     15347     15350     15353     15355     15347     15350     15353     15356
     15348     15347     15350     15351     15348     15347     15350     15352
     15348     15347     15350     15353     15349     15347     15350     15351
     15349     15347     15350     15352     15349     15347     15350     15353
     15350     15353     15356     15357     15350     15353     15356     15358
     15350     15353     15356     15359     15351     15350     15353     15354
     15351     15350     15353     15355     15351     15350     15353     15356
     15352     15350     15353     15354     15352     15350     15353     15355
     15352     15350     15353     15356     15353     15356     15359     15360
     15353     15356     15359     15361     15353     15356     15359     15362
     15354     15353     15356     15357     15354     15353     15356     15358
     15354     15353     15356     15359     15355     15353     15356     15357
     15355     15353     15356     15358     15355     15353     15356     15359
     15356     15359     15362     15363     15356     15359     15362     15364
     15356     15359     15362     15365     15357     15356     15359     15360
     15357     15356     15359     15361     15357     15356     15359     15362
     15358     15356     15359     15360     15358     15356     15359     15361
     15358     15356     15359     15362     15359     15362     15365     15366
     15359     15362     15365     15367     15359     15362     15365     15368
     15360     15359     15362     15363     15360     15359     15362     15364
     15360     15359     15362     15365     15361     15359     15362     15363
     15361     15359     15362     15364     15361     15359     15362     15365
     15362     15365     15368     15369     15362     15365     15368     15370
     15362     15365     15368     15371     15363     15362     15365     15366
     15363     15362     15365     15367     15363     15362     15365     15368
     15364     15362     15365     15366     15364     15362     15365     15367
     15364     15362     15365     15368     15365     15368     15371     15372
     15365     15368     15371     15373     15365     15368     15371     15374
     15366     15365     15368     15369     15366     15365     15368     15370
     15366     15365     15368     15371     15367     15365     15368     15369
     15367     15365     15368     15370     15367     15365     15368     15371
     15368     15371     15374     15375     15368     15371     15374     15376
     15368     15371     15374     15377     15369     15368     15371     15372
     15369     15368     15371     15373     15369     15368     15371     15374
     15370     15368     15371     15372     15370     15368     15371     15373
     15370     15368     15371     15374     15371     15374     15377     15378
     15371     15374     15377     15379     15371     15374     15377     15380
     15372     15371     15374     15375     15372     15371     15374     15376
     15372     15371     15374     15377     15373     15371     15374     15375
     15373     15371     15374     15376     15373     15371     15374     15377
     15374     15377     15380     15381     15374     15377     15380     15382
     15374     15377     15380     15383     15375     15374     15377     15378
     15375     15374     15377     15379     15375     15374     15377     15380
     15376     15374     15377     15378     15376     15374     15377     15379
     15376     15374     15377     15380     15377     15380     15383     15384
     15377     15380     15383     15385     15377     15380     15383     15386
     15378     15377     15380     15381     15378     15377     15380     15382
     15378     15377     15380     15383     15379     15377     15380     15381
     15379     15377     15380     15382     15379     15377     15380     15383
     15381     15380     15383     15384     15381     15380     15383     15385
     15381     15380     15383     15386     15382     15380     15383     15384
     15382     15380     15383     15385     15382     15380     15383     15386
     15387     15391     15394     15395     15387     15391     15394     15396
     15387     15391     15394     15401     15388     15387     15391     15392
     15388     15387     15391     15393     15388     15387     15391     15394
     15389     15387     15391     15392     15389     15387     15391     15393
     15389     15387     15391     15394     15390     15387     15391     15392
     15390     15387     15391     15393     15390     15387     15391     15394
     15391     15394     15401     15397     15392     15391     15394     15395
     15392     15391     15394     15396     15392     15391     15394     15401
     15393     15391     15394     15395     15393     15391     15394     15396
     15393     15391     15394     15401     15394     15401     15397     15398
     15394     15401     15397     15399     15394     15401     15397     15400
     15395     15394     15401     15397     15396     15394     15401     15397
     15397     15400     15402     15403     15397     15400     15402     15404
     15397     15400     15402     15405     15398     15397     15400     15402
     15399     15397     15400     15402     15400     15402     15405     15406
     15400     15402     15405     15407     15400     15402     15405     15413
     15401     15397     15400     15402     15402     15405     15407     15408
     15402     15405     15413     15414     15402     15405     15413     15415
     15402     15405     15413     15416     15403     15402     15405     15406
     15403     15402     15405     15407     15403     15402     15405     15413
     15404     15402     15405     15406     15404     15402     15405     15407
     15404     15402     15405     15413     15405     15407     15408     15409
     15405     15407     15408     15410     15405     15413     15416     15417
     15406     15405     15407     15408     15406     15405     15413     15414
     15406     15405     15413     15415     15406     15405     15413     15416
     15407     15405     15413     15414     15407     15405     15413     15415
     15407     15405     15413     15416     15407     15408     15410     15411
     15407     15408     15410     15412     15407     15408     15410     15422
     15408     15407     15405     15413     15408     15410     15422     15423
     15408     15410     15422     15424     15408     15410     15422     15425
     15409     15408     15410     15411     15409     15408     15410     15412
     15409     15408     15410     15422     15410     15422     15425     15426
     15410     15422     15425     15427     15410     15422     15425     15428
     15411     15410     15422     15423     15411     15410     15422     15424
     15411     15410     15422     15425     15412     15410     15422     15423
     15412     15410     15422     15424     15412     15410     15422     15425
     15413     15416     15417     15418     15413     15416     15417     15419
     15414     15413     15416     15417     15415     15413     15416     15417
     15416     15417     15419     15420     15416     15417     15419     15421
     15416     15417     15419     15466     15417     15419     15466     15467
     15417     15419     15466     15468     15417     15419     15466     15469
     15418     15417     15419     15420     15418     15417     15419     15421
     15418     15417     15419     15466     15419     15466     15469     15470
     15419     15466     15469     15471     15419     15466     15469     15472
     15420     15419     15466     15467     15420     15419     15466     15468
     15420     15419     15466     15469     15421     15419     15466     15467
     15421     15419     15466     15468     15421     15419     15466     15469
     15422     15425     15428     15429     15422     15425     15428     15430
     15422     15425     15428     15431     15423     15422     15425     15426
     15423     15422     15425     15427     15423     15422     15425     15428
     15424     15422     15425     15426     15424     15422     15425     15427
     15424     15422     15425     15428     15425     15428     15431     15432
     15425     15428     15431     15433     15425     15428     15431     15434
     15426     15425     15428     15429     15426     15425     15428     15430
     15426     15425     15428     15431     15427     15425     15428     15429
     15427     15425     15428     15430     15427     15425     15428     15431
     15428     15431     15434     15435     15428     15431     15434     15436
     15428     15431     15434     15437     15429     15428     15431     15432
     15429     15428     15431     15433     15429     15428     15431     15434
     15430     15428     15431     15432     15430     15428     15431     15433
     15430     15428     15431     15434     15431     15434     15437     15438
     15431     15434     15437     15439     15431     15434     15437     15440
     15432     15431     15434     15435     15432     15431     15434     15436
     15432     15431     15434     15437     15433     15431     15434     15435
     15433     15431     15434     15436     15433     15431     15434     15437
     15434     15437     15440     15441     15434     15437     15440     15442
     15434     15437     15440     15445     15435     15434     15437     15438
     15435     15434     15437     15439     15435     15434     15437     15440
     15436     15434     15437     15438     15436     15434     15437     15439
     15436     15434     15437     15440     15437     15440     15442     15443
     15437     15440     15442     15444     15437     15440     15442     15445
     15437     15440     15445     15442     15437     15440     15445     15446
     15437     15440     15445     15447     15438     15437     15440     15441
     15438     15437     15440     15442     15438     15437     15440     15445
     15439     15437     15440     15441     15439     15437     15440     15442
     15439     15437     15440     15445     15440     15442     15445     15446
     15440     15442     15445     15447     15440     15445     15442     15443
     15440     15445     15442     15444     15440     15445     15447     15448
     15440     15445     15447     15449     15440     15445     15447     15450
     15441     15440     15442     15443     15441     15440     15442     15444
     15441     15440     15442     15445     15441     15440     15445     15442
     15441     15440     15445     15446     15441     15440     15445     15447
     15442     15440     15445     15446     15442     15440     15445     15447
     15442     15445     15447     15448     15442     15445     15447     15449
     15442     15445     15447     15450     15443     15442     15440     15445
     15443     15442     15445     15446     15443     15442     15445     15447
     15444     15442     15440     15445     15444     15442     15445     15446
     15444     15442     15445     15447     15445     15447     15450     15451
     15445     15447     15450     15452     15445     15447     15450     15453
     15446     15445     15447     15448     15446     15445     15447     15449
     15446     15445     15447     15450     15447     15450     15453     15454
     15447     15450     15453     15455     15447     15450     15453     15456
     15448     15447     15450     15451     15448     15447     15450     15452
     15448     15447     15450     15453     15449     15447     15450     15451
     15449     15447     15450     15452     15449     15447     15450     15453
     15450     15453     15456     15457     15450     15453     15456     15458
     15450     15453     15456     15459     15451     15450     15453     15454
     15451     15450     15453     15455     15451     15450     15453     15456
     15452     15450     15453     15454     15452     15450     15453     15455
     15452     15450     15453     15456     15453     15456     15459     15460
     15453     15456     15459     15461     15453     15456     15459     15462
     15454     15453     15456     15457     15454     15453     15456     15458
     15454     15453     15456     15459     15455     15453     15456     15457
     15455     15453     15456     15458     15455     15453     15456     15459
     15456     15459     15462     15463     15456     15459     15462     15464
     15456     15459     15462     15465     15457     15456     15459     15460
     15457     15456     15459     15461     15457     15456     15459     15462
     15458     15456     15459     15460     15458     15456     15459     15461
     15458     15456     15459     15462     15460     15459     15462     15463
     15460     15459     15462     15464     15460     15459     15462     15465
     15461     15459     15462     15463     15461     15459     15462     15464
     15461     15459     15462     15465     15466     15469     15472     15473
     15466     15469     15472     15474     15466     15469     15472     15475
     15467     15466     15469     15470     15467     15466     15469     15471
     15467     15466     15469     15472     15468     15466     15469     15470
     15468     15466     15469     15471     15468     15466     15469     15472
     15469     15472     15475     15476     15469     15472     15475     15477
     15469     15472     15475     15478     15470     15469     15472     15473
     15470     15469     15472     15474     15470     15469     15472     15475
     15471     15469     15472     15473     15471     15469     15472     15474
     15471     15469     15472     15475     15472     15475     15478     15479
     15472     15475     15478     15480     15472     15475     15478     15481
     15473     15472     15475     15476     15473     15472     15475     15477
     15473     15472     15475     15478     15474     15472     15475     15476
     15474     15472     15475     15477     15474     15472     15475     15478
     15475     15478     15481     15482     15475     15478     15481     15483
     15475     15478     15481     15484     15476     15475     15478     15479
     15476     15475     15478     15480     15476     15475     15478     15481
     15477     15475     15478     15479     15477     15475     15478     15480
     15477     15475     15478     15481     15478     15481     15484     15485
     15478     15481     15484     15486     15478     15481     15484     15487
     15479     15478     15481     15482     15479     15478     15481     15483
     15479     15478     15481     15484     15480     15478     15481     15482
     15480     15478     15481     15483     15480     15478     15481     15484
     15481     15484     15487     15488     15481     15484     15487     15489
     15481     15484     15487     15490     15482     15481     15484     15485
     15482     15481     15484     15486     15482     15481     15484     15487
     15483     15481     15484     15485     15483     15481     15484     15486
     15483     15481     15484     15487     15484     15487     15490     15491
     15484     15487     15490     15492     15484     15487     15490     15493
     15485     15484     15487     15488     15485     15484     15487     15489
     15485     15484     15487     15490     15486     15484     15487     15488
     15486     15484     15487     15489     15486     15484     15487     15490
     15487     15490     15493     15494     15487     15490     15493     15495
     15487     15490     15493     15496     15488     15487     15490     15491
     15488     15487     15490     15492     15488     15487     15490     15493
     15489     15487     15490     15491     15489     15487     15490     15492
     15489     15487     15490     15493     15490     15493     15496     15497
     15490     15493     15496     15498     15490     15493     15496     15499
     15491     15490     15493     15494     15491     15490     15493     15495
     15491     15490     15493     15496     15492     15490     15493     15494
     15492     15490     15493     15495     15492     15490     15493     15496
     15493     15496     15499     15500     15493     15496     15499     15501
     15493     15496     15499     15502     15494     15493     15496     15497
     15494     15493     15496     15498     15494     15493     15496     15499
     15495     15493     15496     15497     15495     15493     15496     15498
     15495     15493     15496     15499     15496     15499     15502     15503
     15496     15499     15502     15504     15496     15499     15502     15505
     15497     15496     15499     15500     15497     15496     15499     15501
     15497     15496     15499     15502     15498     15496     15499     15500
     15498     15496     15499     15501     15498     15496     15499     15502
     15499     15502     15505     15506     15499     15502     15505     15507
     15499     15502     15505     15508     15500     15499     15502     15503
     15500     15499     15502     15504     15500     15499     15502     15505
     15501     15499     15502     15503     15501     15499     15502     15504
     15501     15499     15502     15505     15503     15502     15505     15506
     15503     15502     15505     15507     15503     15502     15505     15508
     15504     15502     15505     15506     15504     15502     15505     15507
     15504     15502     15505     15508     15509     15513     15516     15517
     15509     15513     15516     15518     15509     15513     15516     15523
     15510     15509     15513     15514     15510     15509     15513     15515
     15510     15509     15513     15516     15511     15509     15513     15514
     15511     15509     15513     15515     15511     15509     15513     15516
     15512     15509     15513     15514     15512     15509     15513     15515
     15512     15509     15513     15516     15513     15516     15523     15519
     15514     15513     15516     15517     15514     15513     15516     15518
     15514     15513     15516     15523     15515     15513     15516     15517
     15515     15513     15516     15518     15515     15513     15516     15523
     15516     15523     15519     15520     15516     15523     15519     15521
     15516     15523     15519     15522     15517     15516     15523     15519
     15518     15516     15523     15519     15519     15522     15524     15525
     15519     15522     15524     15526     15519     15522     15524     15527
     15520     15519     15522     15524     15521     15519     15522     15524
     15522     15524     15527     15528     15522     15524     15527     15529
     15522     15524     15527     15535     15523     15519     15522     15524
     15524     15527     15529     15530     15524     15527     15535     15536
     15524     15527     15535     15537     15524     15527     15535     15538
     15525     15524     15527     15528     15525     15524     15527     15529
     15525     15524     15527     15535     15526     15524     15527     15528
     15526     15524     15527     15529     15526     15524     15527     15535
     15527     15529     15530     15531     15527     15529     15530     15532
     15527     15535     15538     15539     15528     15527     15529     15530
     15528     15527     15535     15536     15528     15527     15535     15537
     15528     15527     15535     15538     15529     15527     15535     15536
     15529     15527     15535     15537     15529     15527     15535     15538
     15529     15530     15532     15533     15529     15530     15532     15534
     15529     15530     15532     15544     15530     15529     15527     15535
     15530     15532     15544     15545     15530     15532     15544     15546
     15530     15532     15544     15547     15531     15530     15532     15533
     15531     15530     15532     15534     15531     15530     15532     15544
     15532     15544     15547     15548     15532     15544     15547     15549
     15532     15544     15547     15550     15533     15532     15544     15545
     15533     15532     15544     15546     15533     15532     15544     15547
     15534     15532     15544     15545     15534     15532     15544     15546
     15534     15532     15544     15547     15535     15538     15539     15540
     15535     15538     15539     15541     15536     15535     15538     15539
     15537     15535     15538     15539     15538     15539     15541     15542
     15538     15539     15541     15543     15538     15539     15541     15588
     15539     15541     15588     15589     15539     15541     15588     15590
     15539     15541     15588     15591     15540     15539     15541     15542
     15540     15539     15541     15543     15540     15539     15541     15588
     15541     15588     15591     15592     15541     15588     15591     15593
     15541     15588     15591     15594     15542     15541     15588     15589
     15542     15541     15588     15590     15542     15541     15588     15591
     15543     15541     15588     15589     15543     15541     15588     15590
     15543     15541     15588     15591     15544     15547     15550     15551
     15544     15547     15550     15552     15544     15547     15550     15553
     15545     15544     15547     15548     15545     15544     15547     15549
     15545     15544     15547     15550     15546     15544     15547     15548
     15546     15544     15547     15549     15546     15544     15547     15550
     15547     15550     15553     15554     15547     15550     15553     15555
     15547     15550     15553     15556     15548     15547     15550     15551
     15548     15547     15550     15552     15548     15547     15550     15553
     15549     15547     15550     15551     15549     15547     15550     15552
     15549     15547     15550     15553     15550     15553     15556     15557
     15550     15553     15556     15558     15550     15553     15556     15559
     15551     15550     15553     15554     15551     15550     15553     15555
     15551     15550     15553     15556     15552     15550     15553     15554
     15552     15550     15553     15555     15552     15550     15553     15556
     15553     15556     15559     15560     15553     15556     15559     15561
     15553     15556     15559     15562     15554     15553     15556     15557
     15554     15553     15556     15558     15554     15553     15556     15559
     15555     15553     15556     15557     15555     15553     15556     15558
     15555     15553     15556     15559     15556     15559     15562     15563
     15556     15559     15562     15564     15556     15559     15562     15567
     15557     15556     15559     15560     15557     15556     15559     15561
     15557     15556     15559     15562     15558     15556     15559     15560
     15558     15556     15559     15561     15558     15556     15559     15562
     15559     15562     15564     15565     15559     15562     15564     15566
     15559     15562     15564     15567     15559     15562     15567     15564
     15559     15562     15567     15568     15559     15562     15567     15569
     15560     15559     15562     15563     15560     15559     15562     15564
     15560     15559     15562     15567     15561     15559     15562     15563
     15561     15559     15562     15564     15561     15559     15562     15567
     15562     15564     15567     15568     15562     15564     15567     15569
     15562     15567     15564     15565     15562     15567     15564     15566
     15562     15567     15569     15570     15562     15567     15569     15571
     15562     15567     15569     15572     15563     15562     15564     15565
     15563     15562     15564     15566     15563     15562     15564     15567
     15563     15562     15567     15564     15563     15562     15567     15568
     15563     15562     15567     15569     15564     15562     15567     15568
     15564     15562     15567     15569     15564     15567     15569     15570
     15564     15567     15569     15571     15564     15567     15569     15572
     15565     15564     15562     15567     15565     15564     15567     15568
     15565     15564     15567     15569     15566     15564     15562     15567
     15566     15564     15567     15568     15566     15564     15567     15569
     15567     15569     15572     15573     15567     15569     15572     15574
     15567     15569     15572     15575     15568     15567     15569     15570
     15568     15567     15569     15571     15568     15567     15569     15572
     15569     15572     15575     15576     15569     15572     15575     15577
     15569     15572     15575     15578     15570     15569     15572     15573
     15570     15569     15572     15574     15570     15569     15572     15575
     15571     15569     15572     15573     15571     15569     15572     15574
     15571     15569     15572     15575     15572     15575     15578     15579
     15572     15575     15578     15580     15572     15575     15578     15581
     15573     15572     15575     15576     15573     15572     15575     15577
     15573     15572     15575     15578     15574     15572     15575     15576
     15574     15572     15575     15577     15574     15572     15575     15578
     15575     15578     15581     15582     15575     15578     15581     15583
     15575     15578     15581     15584     15576     15575     15578     15579
     15576     15575     15578     15580     15576     15575     15578     15581
     15577     15575     15578     15579     15577     15575     15578     15580
     15577     15575     15578     15581     15578     15581     15584     15585
     15578     15581     15584     15586     15578     15581     15584     15587
     15579     15578     15581     15582     15579     15578     15581     15583
     15579     15578     15581     15584     15580     15578     15581     15582
     15580     15578     15581     15583     15580     15578     15581     15584
     15582     15581     15584     15585     15582     15581     15584     15586
     15582     15581     15584     15587     15583     15581     15584     15585
     15583     15581     15584     15586     15583     15581     15584     15587
     15588     15591     15594     15595     15588     15591     15594     15596
     15588     15591     15594     15597     15589     15588     15591     15592
     15589     15588     15591     15593     15589     15588     15591     15594
     15590     15588     15591     15592     15590     15588     15591     15593
     15590     15588     15591     15594     15591     15594     15597     15598
     15591     15594     15597     15599     15591     15594     15597     15600
     15592     15591     15594     15595     15592     15591     15594     15596
     15592     15591     15594     15597     15593     15591     15594     15595
     15593     15591     15594     15596     15593     15591     15594     15597
     15594     15597     15600     15601     15594     15597     15600     15602
     15594     15597     15600     15603     15595     15594     15597     15598
     15595     15594     15597     15599     15595     15594     15597     15600
     15596     15594     15597     15598     15596     15594     15597     15599
     15596     15594     15597     15600     15597     15600     15603     15604
     15597     15600     15603     15605     15597     15600     15603     15606
     15598     15597     15600     15601     15598     15597     15600     15602
     15598     15597     15600     15603     15599     15597     15600     15601
     15599     15597     15600     15602     15599     15597     15600     15603
     15600     15603     15606     15607     15600     15603     15606     15608
     15600     15603     15606     15609     15601     15600     15603     15604
     15601     15600     15603     15605     15601     15600     15603     15606
     15602     15600     15603     15604     15602     15600     15603     15605
     15602     15600     15603     15606     15603     15606     15609     15610
     15603     15606     15609     15611     15603     15606     15609     15612
     15604     15603     15606     15607     15604     15603     15606     15608
     15604     15603     15606     15609     15605     15603     15606     15607
     15605     15603     15606     15608     15605     15603     15606     15609
     15606     15609     15612     15613     15606     15609     15612     15614
     15606     15609     15612     15615     15607     15606     15609     15610
     15607     15606     15609     15611     15607     15606     15609     15612
     15608     15606     15609     15610     15608     15606     15609     15611
     15608     15606     15609     15612     15609     15612     15615     15616
     15609     15612     15615     15617     15609     15612     15615     15618
     15610     15609     15612     15613     15610     15609     15612     15614
     15610     15609     15612     15615     15611     15609     15612     15613
     15611     15609     15612     15614     15611     15609     15612     15615
     15612     15615     15618     15619     15612     15615     15618     15620
     15612     15615     15618     15621     15613     15612     15615     15616
     15613     15612     15615     15617     15613     15612     15615     15618
     15614     15612     15615     15616     15614     15612     15615     15617
     15614     15612     15615     15618     15615     15618     15621     15622
     15615     15618     15621     15623     15615     15618     15621     15624
     15616     15615     15618     15619     15616     15615     15618     15620
     15616     15615     15618     15621     15617     15615     15618     15619
     15617     15615     15618     15620     15617     15615     15618     15621
     15618     15621     15624     15625     15618     15621     15624     15626
     15618     15621     15624     15627     15619     15618     15621     15622
     15619     15618     15621     15623     15619     15618     15621     15624
     15620     15618     15621     15622     15620     15618     15621     15623
     15620     15618     15621     15624     15621     15624     15627     15628
     15621     15624     15627     15629     15621     15624     15627     15630
     15622     15621     15624     15625     15622     15621     15624     15626
     15622     15621     15624     15627     15623     15621     15624     15625
     15623     15621     15624     15626     15623     15621     15624     15627
     15625     15624     15627     15628     15625     15624     15627     15629
     15625     15624     15627     15630     15626     15624     15627     15628
     15626     15624     15627     15629     15626     15624     15627     15630
     15631     15635     15638     15639     15631     15635     15638     15640
     15631     15635     15638     15645     15632     15631     15635     15636
     15632     15631     15635     15637     15632     15631     15635     15638
     15633     15631     15635     15636     15633     15631     15635     15637
     15633     15631     15635     15638     15634     15631     15635     15636
     15634     15631     15635     15637     15634     15631     15635     15638
     15635     15638     15645     15641     15636     15635     15638     15639
     15636     15635     15638     15640     15636     15635     15638     15645
     15637     15635     15638     15639     15637     15635     15638     15640
     15637     15635     15638     15645     15638     15645     15641     15642
     15638     15645     15641     15643     15638     15645     15641     15644
     15639     15638     15645     15641     15640     15638     15645     15641
     15641     15644     15646     15647     15641     15644     15646     15648
     15641     15644     15646     15649     15642     15641     15644     15646
     15643     15641     15644     15646     15644     15646     15649     15650
     15644     15646     15649     15651     15644     15646     15649     15657
     15645     15641     15644     15646     15646     15649     15651     15652
     15646     15649     15657     15658     15646     15649     15657     15659
     15646     15649     15657     15660     15647     15646     15649     15650
     15647     15646     15649     15651     15647     15646     15649     15657
     15648     15646     15649     15650     15648     15646     15649     15651
     15648     15646     15649     15657     15649     15651     15652     15653
     15649     15651     15652     15654     15649     15657     15660     15661
     15650     15649     15651     15652     15650     15649     15657     15658
     15650     15649     15657     15659     15650     15649     15657     15660
     15651     15649     15657     15658     15651     15649     15657     15659
     15651     15649     15657     15660     15651     15652     15654     15655
     15651     15652     15654     15656     15651     15652     15654     15666
     15652     15651     15649     15657     15652     15654     15666     15667
     15652     15654     15666     15668     15652     15654     15666     15669
     15653     15652     15654     15655     15653     15652     15654     15656
     15653     15652     15654     15666     15654     15666     15669     15670
     15654     15666     15669     15671     15654     15666     15669     15672
     15655     15654     15666     15667     15655     15654     15666     15668
     15655     15654     15666     15669     15656     15654     15666     15667
     15656     15654     15666     15668     15656     15654     15666     15669
     15657     15660     15661     15662     15657     15660     15661     15663
     15658     15657     15660     15661     15659     15657     15660     15661
     15660     15661     15663     15664     15660     15661     15663     15665
     15660     15661     15663     15710     15661     15663     15710     15711
     15661     15663     15710     15712     15661     15663     15710     15713
     15662     15661     15663     15664     15662     15661     15663     15665
     15662     15661     15663     15710     15663     15710     15713     15714
     15663     15710     15713     15715     15663     15710     15713     15716
     15664     15663     15710     15711     15664     15663     15710     15712
     15664     15663     15710     15713     15665     15663     15710     15711
     15665     15663     15710     15712     15665     15663     15710     15713
     15666     15669     15672     15673     15666     15669     15672     15674
     15666     15669     15672     15675     15667     15666     15669     15670
     15667     15666     15669     15671     15667     15666     15669     15672
     15668     15666     15669     15670     15668     15666     15669     15671
     15668     15666     15669     15672     15669     15672     15675     15676
     15669     15672     15675     15677     15669     15672     15675     15678
     15670     15669     15672     15673     15670     15669     15672     15674
     15670     15669     15672     15675     15671     15669     15672     15673
     15671     15669     15672     15674     15671     15669     15672     15675
     15672     15675     15678     15679     15672     15675     15678     15680
     15672     15675     15678     15681     15673     15672     15675     15676
     15673     15672     15675     15677     15673     15672     15675     15678
     15674     15672     15675     15676     15674     15672     15675     15677
     15674     15672     15675     15678     15675     15678     15681     15682
     15675     15678     15681     15683     15675     15678     15681     15684
     15676     15675     15678     15679     15676     15675     15678     15680
     15676     15675     15678     15681     15677     15675     15678     15679
     15677     15675     15678     15680     15677     15675     15678     15681
     15678     15681     15684     15685     15678     15681     15684     15686
     15678     15681     15684     15689     15679     15678     15681     15682
     15679     15678     15681     15683     15679     15678     15681     15684
     15680     15678     15681     15682     15680     15678     15681     15683
     15680     15678     15681     15684     15681     15684     15686     15687
     15681     15684     15686     15688     15681     15684     15686     15689
     15681     15684     15689     15686     15681     15684     15689     15690
     15681     15684     15689     15691     15682     15681     15684     15685
     15682     15681     15684     15686     15682     15681     15684     15689
     15683     15681     15684     15685     15683     15681     15684     15686
     15683     15681     15684     15689     15684     15686     15689     15690
     15684     15686     15689     15691     15684     15689     15686     15687
     15684     15689     15686     15688     15684     15689     15691     15692
     15684     15689     15691     15693     15684     15689     15691     15694
     15685     15684     15686     15687     15685     15684     15686     15688
     15685     15684     15686     15689     15685     15684     15689     15686
     15685     15684     15689     15690     15685     15684     15689     15691
     15686     15684     15689     15690     15686     15684     15689     15691
     15686     15689     15691     15692     15686     15689     15691     15693
     15686     15689     15691     15694     15687     15686     15684     15689
     15687     15686     15689     15690     15687     15686     15689     15691
     15688     15686     15684     15689     15688     15686     15689     15690
     15688     15686     15689     15691     15689     15691     15694     15695
     15689     15691     15694     15696     15689     15691     15694     15697
     15690     15689     15691     15692     15690     15689     15691     15693
     15690     15689     15691     15694     15691     15694     15697     15698
     15691     15694     15697     15699     15691     15694     15697     15700
     15692     15691     15694     15695     15692     15691     15694     15696
     15692     15691     15694     15697     15693     15691     15694     15695
     15693     15691     15694     15696     15693     15691     15694     15697
     15694     15697     15700     15701     15694     15697     15700     15702
     15694     15697     15700     15703     15695     15694     15697     15698
     15695     15694     15697     15699     15695     15694     15697     15700
     15696     15694     15697     15698     15696     15694     15697     15699
     15696     15694     15697     15700     15697     15700     15703     15704
     15697     15700     15703     15705     15697     15700     15703     15706
     15698     15697     15700     15701     15698     15697     15700     15702
     15698     15697     15700     15703     15699     15697     15700     15701
     15699     15697     15700     15702     15699     15697     15700     15703
     15700     15703     15706     15707     15700     15703     15706     15708
     15700     15703     15706     15709     15701     15700     15703     15704
     15701     15700     15703     15705     15701     15700     15703     15706
     15702     15700     15703     15704     15702     15700     15703     15705
     15702     15700     15703     15706     15704     15703     15706     15707
     15704     15703     15706     15708     15704     15703     15706     15709
     15705     15703     15706     15707     15705     15703     15706     15708
     15705     15703     15706     15709     15710     15713     15716     15717
     15710     15713     15716     15718     15710     15713     15716     15719
     15711     15710     15713     15714     15711     15710     15713     15715
     15711     15710     15713     15716     15712     15710     15713     15714
     15712     15710     15713     15715     15712     15710     15713     15716
     15713     15716     15719     15720     15713     15716     15719     15721
     15713     15716     15719     15722     15714     15713     15716     15717
     15714     15713     15716     15718     15714     15713     15716     15719
     15715     15713     15716     15717     15715     15713     15716     15718
     15715     15713     15716     15719     15716     15719     15722     15723
     15716     15719     15722     15724     15716     15719     15722     15725
     15717     15716     15719     15720     15717     15716     15719     15721
     15717     15716     15719     15722     15718     15716     15719     15720
     15718     15716     15719     15721     15718     15716     15719     15722
     15719     15722     15725     15726     15719     15722     15725     15727
     15719     15722     15725     15728     15720     15719     15722     15723
     15720     15719     15722     15724     15720     15719     15722     15725
     15721     15719     15722     15723     15721     15719     15722     15724
     15721     15719     15722     15725     15722     15725     15728     15729
     15722     15725     15728     15730     15722     15725     15728     15731
     15723     15722     15725     15726     15723     15722     15725     15727
     15723     15722     15725     15728     15724     15722     15725     15726
     15724     15722     15725     15727     15724     15722     15725     15728
     15725     15728     15731     15732     15725     15728     15731     15733
     15725     15728     15731     15734     15726     15725     15728     15729
     15726     15725     15728     15730     15726     15725     15728     15731
     15727     15725     15728     15729     15727     15725     15728     15730
     15727     15725     15728     15731     15728     15731     15734     15735
     15728     15731     15734     15736     15728     15731     15734     15737
     15729     15728     15731     15732     15729     15728     15731     15733
     15729     15728     15731     15734     15730     15728     15731     15732
     15730     15728     15731     15733     15730     15728     15731     15734
     15731     15734     15737     15738     15731     15734     15737     15739
     15731     15734     15737     15740     15732     15731     15734     15735
     15732     15731     15734     15736     15732     15731     15734     15737
     15733     15731     15734     15735     15733     15731     15734     15736
     15733     15731     15734     15737     15734     15737     15740     15741
     15734     15737     15740     15742     15734     15737     15740     15743
     15735     15734     15737     15738     15735     15734     15737     15739
     15735     15734     15737     15740     15736     15734     15737     15738
     15736     15734     15737     15739     15736     15734     15737     15740
     15737     15740     15743     15744     15737     15740     15743     15745
     15737     15740     15743     15746     15738     15737     15740     15741
     15738     15737     15740     15742     15738     15737     15740     15743
     15739     15737     15740     15741     15739     15737     15740     15742
     15739     15737     15740     15743     15740     15743     15746     15747
     15740     15743     15746     15748     15740     15743     15746     15749
     15741     15740     15743     15744     15741     15740     15743     15745
     15741     15740     15743     15746     15742     15740     15743     15744
     15742     15740     15743     15745     15742     15740     15743     15746
     15743     15746     15749     15750     15743     15746     15749     15751
     15743     15746     15749     15752     15744     15743     15746     15747
     15744     15743     15746     15748     15744     15743     15746     15749
     15745     15743     15746     15747     15745     15743     15746     15748
     15745     15743     15746     15749     15747     15746     15749     15750
     15747     15746     15749     15751     15747     15746     15749     15752
     15748     15746     15749     15750     15748     15746     15749     15751
     15748     15746     15749     15752     15753     15757     15760     15761
     15753     15757     15760     15762     15753     15757     15760     15767
     15754     15753     15757     15758     15754     15753     15757     15759
     15754     15753     15757     15760     15755     15753     15757     15758
     15755     15753     15757     15759     15755     15753     15757     15760
     15756     15753     15757     15758     15756     15753     15757     15759
     15756     15753     15757     15760     15757     15760     15767     15763
     15758     15757     15760     15761     15758     15757     15760     15762
     15758     15757     15760     15767     15759     15757     15760     15761
     15759     15757     15760     15762     15759     15757     15760     15767
     15760     15767     15763     15764     15760     15767     15763     15765
     15760     15767     15763     15766     15761     15760     15767     15763
     15762     15760     15767     15763     15763     15766     15768     15769
     15763     15766     15768     15770     15763     15766     15768     15771
     15764     15763     15766     15768     15765     15763     15766     15768
     15766     15768     15771     15772     15766     15768     15771     15773
     15766     15768     15771     15779     15767     15763     15766     15768
     15768     15771     15773     15774     15768     15771     15779     15780
     15768     15771     15779     15781     15768     15771     15779     15782
     15769     15768     15771     15772     15769     15768     15771     15773
     15769     15768     15771     15779     15770     15768     15771     15772
     15770     15768     15771     15773     15770     15768     15771     15779
     15771     15773     15774     15775     15771     15773     15774     15776
     15771     15779     15782     15783     15772     15771     15773     15774
     15772     15771     15779     15780     15772     15771     15779     15781
     15772     15771     15779     15782     15773     15771     15779     15780
     15773     15771     15779     15781     15773     15771     15779     15782
     15773     15774     15776     15777     15773     15774     15776     15778
     15773     15774     15776     15788     15774     15773     15771     15779
     15774     15776     15788     15789     15774     15776     15788     15790
     15774     15776     15788     15791     15775     15774     15776     15777
     15775     15774     15776     15778     15775     15774     15776     15788
     15776     15788     15791     15792     15776     15788     15791     15793
     15776     15788     15791     15794     15777     15776     15788     15789
     15777     15776     15788     15790     15777     15776     15788     15791
     15778     15776     15788     15789     15778     15776     15788     15790
     15778     15776     15788     15791     15779     15782     15783     15784
     15779     15782     15783     15785     15780     15779     15782     15783
     15781     15779     15782     15783     15782     15783     15785     15786
     15782     15783     15785     15787     15782     15783     15785     15832
     15783     15785     15832     15833     15783     15785     15832     15834
     15783     15785     15832     15835     15784     15783     15785     15786
     15784     15783     15785     15787     15784     15783     15785     15832
     15785     15832     15835     15836     15785     15832     15835     15837
     15785     15832     15835     15838     15786     15785     15832     15833
     15786     15785     15832     15834     15786     15785     15832     15835
     15787     15785     15832     15833     15787     15785     15832     15834
     15787     15785     15832     15835     15788     15791     15794     15795
     15788     15791     15794     15796     15788     15791     15794     15797
     15789     15788     15791     15792     15789     15788     15791     15793
     15789     15788     15791     15794     15790     15788     15791     15792
     15790     15788     15791     15793     15790     15788     15791     15794
     15791     15794     15797     15798     15791     15794     15797     15799
     15791     15794     15797     15800     15792     15791     15794     15795
     15792     15791     15794     15796     15792     15791     15794     15797
     15793     15791     15794     15795     15793     15791     15794     15796
     15793     15791     15794     15797     15794     15797     15800     15801
     15794     15797     15800     15802     15794     15797     15800     15803
     15795     15794     15797     15798     15795     15794     15797     15799
     15795     15794     15797     15800     15796     15794     15797     15798
     15796     15794     15797     15799     15796     15794     15797     15800
     15797     15800     15803     15804     15797     15800     15803     15805
     15797     15800     15803     15806     15798     15797     15800     15801
     15798     15797     15800     15802     15798     15797     15800     15803
     15799     15797     15800     15801     15799     15797     15800     15802
     15799     15797     15800     15803     15800     15803     15806     15807
     15800     15803     15806     15808     15800     15803     15806     15811
     15801     15800     15803     15804     15801     15800     15803     15805
     15801     15800     15803     15806     15802     15800     15803     15804
     15802     15800     15803     15805     15802     15800     15803     15806
     15803     15806     15808     15809     15803     15806     15808     15810
     15803     15806     15808     15811     15803     15806     15811     15808
     15803     15806     15811     15812     15803     15806     15811     15813
     15804     15803     15806     15807     15804     15803     15806     15808
     15804     15803     15806     15811     15805     15803     15806     15807
     15805     15803     15806     15808     15805     15803     15806     15811
     15806     15808     15811     15812     15806     15808     15811     15813
     15806     15811     15808     15809     15806     15811     15808     15810
     15806     15811     15813     15814     15806     15811     15813     15815
     15806     15811     15813     15816     15807     15806     15808     15809
     15807     15806     15808     15810     15807     15806     15808     15811
     15807     15806     15811     15808     15807     15806     15811     15812
     15807     15806     15811     15813     15808     15806     15811     15812
     15808     15806     15811     15813     15808     15811     15813     15814
     15808     15811     15813     15815     15808     15811     15813     15816
     15809     15808     15806     15811     15809     15808     15811     15812
     15809     15808     15811     15813     15810     15808     15806     15811
     15810     15808     15811     15812     15810     15808     15811     15813
     15811     15813     15816     15817     15811     15813     15816     15818
     15811     15813     15816     15819     15812     15811     15813     15814
     15812     15811     15813     15815     15812     15811     15813     15816
     15813     15816     15819     15820     15813     15816     15819     15821
     15813     15816     15819     15822     15814     15813     15816     15817
     15814     15813     15816     15818     15814     15813     15816     15819
     15815     15813     15816     15817     15815     15813     15816     15818
     15815     15813     15816     15819     15816     15819     15822     15823
     15816     15819     15822     15824     15816     15819     15822     15825
     15817     15816     15819     15820     15817     15816     15819     15821
     15817     15816     15819     15822     15818     15816     15819     15820
     15818     15816     15819     15821     15818     15816     15819     15822
     15819     15822     15825     15826     15819     15822     15825     15827
     15819     15822     15825     15828     15820     15819     15822     15823
     15820     15819     15822     15824     15820     15819     15822     15825
     15821     15819     15822     15823     15821     15819     15822     15824
     15821     15819     15822     15825     15822     15825     15828     15829
     15822     15825     15828     15830     15822     15825     15828     15831
     15823     15822     15825     15826     15823     15822     15825     15827
     15823     15822     15825     15828     15824     15822     15825     15826
     15824     15822     15825     15827     15824     15822     15825     15828
     15826     15825     15828     15829     15826     15825     15828     15830
     15826     15825     15828     15831     15827     15825     15828     15829
     15827     15825     15828     15830     15827     15825     15828     15831
     15832     15835     15838     15839     15832     15835     15838     15840
     15832     15835     15838     15841     15833     15832     15835     15836
     15833     15832     15835     15837     15833     15832     15835     15838
     15834     15832     15835     15836     15834     15832     15835     15837
     15834     15832     15835     15838     15835     15838     15841     15842
     15835     15838     15841     15843     15835     15838     15841     15844
     15836     15835     15838     15839     15836     15835     15838     15840
     15836     15835     15838     15841     15837     15835     15838     15839
     15837     15835     15838     15840     15837     15835     15838     15841
     15838     15841     15844     15845     15838     15841     15844     15846
     15838     15841     15844     15847     15839     15838     15841     15842
     15839     15838     15841     15843     15839     15838     15841     15844
     15840     15838     15841     15842     15840     15838     15841     15843
     15840     15838     15841     15844     15841     15844     15847     15848
     15841     15844     15847     15849     15841     15844     15847     15850
     15842     15841     15844     15845     15842     15841     15844     15846
     15842     15841     15844     15847     15843     15841     15844     15845
     15843     15841     15844     15846     15843     15841     15844     15847
     15844     15847     15850     15851     15844     15847     15850     15852
     15844     15847     15850     15853     15845     15844     15847     15848
     15845     15844     15847     15849     15845     15844     15847     15850
     15846     15844     15847     15848     15846     15844     15847     15849
     15846     15844     15847     15850     15847     15850     15853     15854
     15847     15850     15853     15855     15847     15850     15853     15856
     15848     15847     15850     15851     15848     15847     15850     15852
     15848     15847     15850     15853     15849     15847     15850     15851
     15849     15847     15850     15852     15849     15847     15850     15853
     15850     15853     15856     15857     15850     15853     15856     15858
     15850     15853     15856     15859     15851     15850     15853     15854
     15851     15850     15853     15855     15851     15850     15853     15856
     15852     15850     15853     15854     15852     15850     15853     15855
     15852     15850     15853     15856     15853     15856     15859     15860
     15853     15856     15859     15861     15853     15856     15859     15862
     15854     15853     15856     15857     15854     15853     15856     15858
     15854     15853     15856     15859     15855     15853     15856     15857
     15855     15853     15856     15858     15855     15853     15856     15859
     15856     15859     15862     15863     15856     15859     15862     15864
     15856     15859     15862     15865     15857     15856     15859     15860
     15857     15856     15859     15861     15857     15856     15859     15862
     15858     15856     15859     15860     15858     15856     15859     15861
     15858     15856     15859     15862     15859     15862     15865     15866
     15859     15862     15865     15867     15859     15862     15865     15868
     15860     15859     15862     15863     15860     15859     15862     15864
     15860     15859     15862     15865     15861     15859     15862     15863
     15861     15859     15862     15864     15861     15859     15862     15865
     15862     15865     15868     15869     15862     15865     15868     15870
     15862     15865     15868     15871     15863     15862     15865     15866
     15863     15862     15865     15867     15863     15862     15865     15868
     15864     15862     15865     15866     15864     15862     15865     15867
     15864     15862     15865     15868     15865     15868     15871     15872
     15865     15868     15871     15873     15865     15868     15871     15874
     15866     15865     15868     15869     15866     15865     15868     15870
     15866     15865     15868     15871     15867     15865     15868     15869
     15867     15865     15868     15870     15867     15865     15868     15871
     15869     15868     15871     15872     15869     15868     15871     15873
     15869     15868     15871     15874     15870     15868     15871     15872
     15870     15868     15871     15873     15870     15868     15871     15874
     15875     15879     15882     15883     15875     15879     15882     15884
     15875     15879     15882     15889     15876     15875     15879     15880
     15876     15875     15879     15881     15876     15875     15879     15882
     15877     15875     15879     15880     15877     15875     15879     15881
     15877     15875     15879     15882     15878     15875     15879     15880
     15878     15875     15879     15881     15878     15875     15879     15882
     15879     15882     15889     15885     15880     15879     15882     15883
     15880     15879     15882     15884     15880     15879     15882     15889
     15881     15879     15882     15883     15881     15879     15882     15884
     15881     15879     15882     15889     15882     15889     15885     15886
     15882     15889     15885     15887     15882     15889     15885     15888
     15883     15882     15889     15885     15884     15882     15889     15885
     15885     15888     15890     15891     15885     15888     15890     15892
     15885     15888     15890     15893     15886     15885     15888     15890
     15887     15885     15888     15890     15888     15890     15893     15894
     15888     15890     15893     15895     15888     15890     15893     15901
     15889     15885     15888     15890     15890     15893     15895     15896
     15890     15893     15901     15902     15890     15893     15901     15903
     15890     15893     15901     15904     15891     15890     15893     15894
     15891     15890     15893     15895     15891     15890     15893     15901
     15892     15890     15893     15894     15892     15890     15893     15895
     15892     15890     15893     15901     15893     15895     15896     15897
     15893     15895     15896     15898     15893     15901     15904     15905
     15894     15893     15895     15896     15894     15893     15901     15902
     15894     15893     15901     15903     15894     15893     15901     15904
     15895     15893     15901     15902     15895     15893     15901     15903
     15895     15893     15901     15904     15895     15896     15898     15899
     15895     15896     15898     15900     15895     15896     15898     15910
     15896     15895     15893     15901     15896     15898     15910     15911
     15896     15898     15910     15912     15896     15898     15910     15913
     15897     15896     15898     15899     15897     15896     15898     15900
     15897     15896     15898     15910     15898     15910     15913     15914
     15898     15910     15913     15915     15898     15910     15913     15916
     15899     15898     15910     15911     15899     15898     15910     15912
     15899     15898     15910     15913     15900     15898     15910     15911
     15900     15898     15910     15912     15900     15898     15910     15913
     15901     15904     15905     15906     15901     15904     15905     15907
     15902     15901     15904     15905     15903     15901     15904     15905
     15904     15905     15907     15908     15904     15905     15907     15909
     15904     15905     15907     15957     15905     15907     15957     15958
     15905     15907     15957     15959     15905     15907     15957     15960
     15906     15905     15907     15908     15906     15905     15907     15909
     15906     15905     15907     15957     15907     15957     15960     15961
     15907     15957     15960     15962     15907     15957     15960     15963
     15908     15907     15957     15958     15908     15907     15957     15959
     15908     15907     15957     15960     15909     15907     15957     15958
     15909     15907     15957     15959     15909     15907     15957     15960
     15910     15913     15916     15917     15910     15913     15916     15918
     15910     15913     15916     15919     15911     15910     15913     15914
     15911     15910     15913     15915     15911     15910     15913     15916
     15912     15910     15913     15914     15912     15910     15913     15915
     15912     15910     15913     15916     15913     15916     15919     15920
     15913     15916     15919     15921     15913     15916     15919     15922
     15914     15913     15916     15917     15914     15913     15916     15918
     15914     15913     15916     15919     15915     15913     15916     15917
     15915     15913     15916     15918     15915     15913     15916     15919
     15916     15919     15922     15923     15916     15919     15922     15924
     15916     15919     15922     15925     15917     15916     15919     15920
     15917     15916     15919     15921     15917     15916     15919     15922
     15918     15916     15919     15920     15918     15916     15919     15921
     15918     15916     15919     15922     15919     15922     15925     15926
     15919     15922     15925     15927     15919     15922     15925     15928
     15920     15919     15922     15923     15920     15919     15922     15924
     15920     15919     15922     15925     15921     15919     15922     15923
     15921     15919     15922     15924     15921     15919     15922     15925
     15922     15925     15928     15929     15922     15925     15928     15930
     15923     15922     15925     15926     15923     15922     15925     15927
     15923     15922     15925     15928     15924     15922     15925     15926
     15924     15922     15925     15927     15924     15922     15925     15928
     15925     15928     15930     15931     15925     15928     15930     15932
     15926     15925     15928     15929     15926     15925     15928     15930
     15927     15925     15928     15929     15927     15925     15928     15930
     15928     15930     15932     15933     15928     15930     15932     15934
     15928     15930     15932     15935     15929     15928     15930     15931
     15929     15928     15930     15932     15930     15932     15935     15936
     15930     15932     15935     15937     15930     15932     15935     15938
     15931     15930     15932     15933     15931     15930     15932     15934
     15931     15930     15932     15935     15932     15935     15938     15939
     15932     15935     15938     15940     15932     15935     15938     15941
     15933     15932     15935     15936     15933     15932     15935     15937
     15933     15932     15935     15938     15934     15932     15935     15936
     15934     15932     15935     15937     15934     15932     15935     15938
     15935     15938     15941     15942     15935     15938     15941     15943
     15935     15938     15941     15944     15936     15935     15938     15939
     15936     15935     15938     15940     15936     15935     15938     15941
     15937     15935     15938     15939     15937     15935     15938     15940
     15937     15935     15938     15941     15938     15941     15944     15945
     15938     15941     15944     15946     15938     15941     15944     15947
     15939     15938     15941     15942     15939     15938     15941     15943
     15939     15938     15941     15944     15940     15938     15941     15942
     15940     15938     15941     15943     15940     15938     15941     15944
     15941     15944     15947     15948     15941     15944     15947     15949
     15941     15944     15947     15950     15942     15941     15944     15945
     15942     15941     15944     15946     15942     15941     15944     15947
     15943     15941     15944     15945     15943     15941     15944     15946
     15943     15941     15944     15947     15944     15947     15950     15951
     15944     15947     15950     15952     15944     15947     15950     15953
     15945     15944     15947     15948     15945     15944     15947     15949
     15945     15944     15947     15950     15946     15944     15947     15948
     15946     15944     15947     15949     15946     15944     15947     15950
     15947     15950     15953     15954     15947     15950     15953     15955
     15947     15950     15953     15956     15948     15947     15950     15951
     15948     15947     15950     15952     15948     15947     15950     15953
     15949     15947     15950     15951     15949     15947     15950     15952
     15949     15947     15950     15953     15951     15950     15953     15954
     15951     15950     15953     15955     15951     15950     15953     15956
     15952     15950     15953     15954     15952     15950     15953     15955
     15952     15950     15953     15956     15957     15960     15963     15964
     15957     15960     15963     15965     15957     15960     15963     15966
     15958     15957     15960     15961     15958     15957     15960     15962
     15958     15957     15960     15963     15959     15957     15960     15961
     15959     15957     15960     15962     15959     15957     15960     15963
     15960     15963     15966     15967     15960     15963     15966     15968
     15960     15963     15966     15969     15961     15960     15963     15964
     15961     15960     15963     15965     15961     15960     15963     15966
     15962     15960     15963     15964     15962     15960     15963     15965
     15962     15960     15963     15966     15963     15966     15969     15970
     15963     15966     15969     15971     15963     15966     15969     15972
     15964     15963     15966     15967     15964     15963     15966     15968
     15964     15963     15966     15969     15965     15963     15966     15967
     15965     15963     15966     15968     15965     15963     15966     15969
     15966     15969     15972     15973     15966     15969     15972     15974
     15966     15969     15972     15975     15967     15966     15969     15970
     15967     15966     15969     15971     15967     15966     15969     15972
     15968     15966     15969     15970     15968     15966     15969     15971
     15968     15966     15969     15972     15969     15972     15975     15976
     15969     15972     15975     15977     15969     15972     15975     15978
     15970     15969     15972     15973     15970     15969     15972     15974
     15970     15969     15972     15975     15971     15969     15972     15973
     15971     15969     15972     15974     15971     15969     15972     15975
     15972     15975     15978     15979     15972     15975     15978     15980
     15972     15975     15978     15981     15973     15972     15975     15976
     15973     15972     15975     15977     15973     15972     15975     15978
     15974     15972     15975     15976     15974     15972     15975     15977
     15974     15972     15975     15978     15975     15978     15981     15982
     15975     15978     15981     15983     15975     15978     15981     15984
     15976     15975     15978     15979     15976     15975     15978     15980
     15976     15975     15978     15981     15977     15975     15978     15979
     15977     15975     15978     15980     15977     15975     15978     15981
     15978     15981     15984     15985     15978     15981     15984     15986
     15978     15981     15984     15987     15979     15978     15981     15982
     15979     15978     15981     15983     15979     15978     15981     15984
     15980     15978     15981     15982     15980     15978     15981     15983
     15980     15978     15981     15984     15981     15984     15987     15988
     15981     15984     15987     15989     15981     15984     15987     15990
     15982     15981     15984     15985     15982     15981     15984     15986
     15982     15981     15984     15987     15983     15981     15984     15985
     15983     15981     15984     15986     15983     15981     15984     15987
     15984     15987     15990     15991     15984     15987     15990     15992
     15984     15987     15990     15993     15985     15984     15987     15988
     15985     15984     15987     15989     15985     15984     15987     15990
     15986     15984     15987     15988     15986     15984     15987     15989
     15986     15984     15987     15990     15987     15990     15993     15994
     15987     15990     15993     15995     15987     15990     15993     15996
     15988     15987     15990     15991     15988     15987     15990     15992
     15988     15987     15990     15993     15989     15987     15990     15991
     15989     15987     15990     15992     15989     15987     15990     15993
     15990     15993     15996     15997     15990     15993     15996     15998
     15990     15993     15996     15999     15991     15990     15993     15994
     15991     15990     15993     15995     15991     15990     15993     15996
     15992     15990     15993     15994     15992     15990     15993     15995
     15992     15990     15993     15996     15994     15993     15996     15997
     15994     15993     15996     15998     15994     15993     15996     15999
     15995     15993     15996     15997     15995     15993     15996     15998
     15995     15993     15996     15999     16000     16005     16007     16008
     16000     16005     16009     16010     16000     16005     16009     16011
     16000     16005     16009     16016     16001     16000     16003     16004
     16001     16000     16005     16006     16001     16000     16005     16007
     16001     16000     16005     16009     16002     16000     16003     16004
     16002     16000     16005     16006     16002     16000     16005     16007
     16002     16000     16005     16009     16003     16000     16005     16006
     16003     16000     16005     16007     16003     16000     16005     16009
     16004     16003     16000     16005     16005     16009     16016     16012
     16006     16005     16007     16008     16006     16005     16009     16010
     16006     16005     16009     16011     16006     16005     16009     16016
     16007     16005     16009     16010     16007     16005     16009     16011
     16007     16005     16009     16016     16008     16007     16005     16009
     16009     16016     16012     16013     16009     16016     16012     16014
     16009     16016     16012     16015     16010     16009     16016     16012
     16011     16009     16016     16012     16012     16015     16017     16018
     16012     16015     16017     16019     16012     16015     16017     16020
     16013     16012     16015     16017     16014     16012     16015     16017
     16015     16017     16020     16021     16015     16017     16020     16022
     16015     16017     16020     16028     16016     16012     16015     16017
     16017     16020     16022     16023     16017     16020     16028     16029
     16017     16020     16028     16030     16017     16020     16028     16031
     16018     16017     16020     16021     16018     16017     16020     16022
     16018     16017     16020     16028     16019     16017     16020     16021
     16019     16017     16020     16022     16019     16017     16020     16028
     16020     16022     16023     16024     16020     16022     16023     16025
     16020     16028     16031     16032     16021     16020     16022     16023
     16021     16020     16028     16029     16021     16020     16028     16030
     16021     16020     16028     16031     16022     16020     16028     16029
     16022     16020     16028     16030     16022     16020     16028     16031
     16022     16023     16025     16026     16022     16023     16025     16027
     16022     16023     16025     16037     16023     16022     16020     16028
     16023     16025     16037     16038     16023     16025     16037     16039
     16023     16025     16037     16040     16024     16023     16025     16026
     16024     16023     16025     16027     16024     16023     16025     16037
     16025     16037     16040     16041     16025     16037     16040     16042
     16025     16037     16040     16043     16026     16025     16037     16038
     16026     16025     16037     16039     16026     16025     16037     16040
     16027     16025     16037     16038     16027     16025     16037     16039
     16027     16025     16037     16040     16028     16031     16032     16033
     16028     16031     16032     16034     16029     16028     16031     16032
     16030     16028     16031     16032     16031     16032     16034     16035
     16031     16032     16034     16036     16031     16032     16034     16078
     16032     16034     16078     16079     16032     16034     16078     16080
     16032     16034     16078     16081     16033     16032     16034     16035
     16033     16032     16034     16036     16033     16032     16034     16078
     16034     16078     16081     16082     16034     16078     16081     16083
     16034     16078     16081     16084     16035     16034     16078     16079
     16035     16034     16078     16080     16035     16034     16078     16081
     16036     16034     16078     16079     16036     16034     16078     16080
     16036     16034     16078     16081     16037     16040     16043     16044
     16037     16040     16043     16045     16037     16040     16043     16046
     16038     16037     16040     16041     16038     16037     16040     16042
     16038     16037     16040     16043     16039     16037     16040     16041
     16039     16037     16040     16042     16039     16037     16040     16043
     16040     16043     16046     16047     16040     16043     16046     16048
     16040     16043     16046     16049     16041     16040     16043     16044
     16041     16040     16043     16045     16041     16040     16043     16046
     16042     16040     16043     16044     16042     16040     16043     16045
     16042     16040     16043     16046     16043     16046     16049     16050
     16043     16046     16049     16051     16043     16046     16049     16052
     16044     16043     16046     16047     16044     16043     16046     16048
     16044     16043     16046     16049     16045     16043     16046     16047
     16045     16043     16046     16048     16045     16043     16046     16049
     16046     16049     16052     16053     16046     16049     16052     16054
     16046     16049     16052     16055     16047     16046     16049     16050
     16047     16046     16049     16051     16047     16046     16049     16052
     16048     16046     16049     16050     16048     16046     16049     16051
     16048     16046     16049     16052     16049     16052     16055     16056
     16049     16052     16055     16057     16050     16049     16052     16053
     16050     16049     16052     16054     16050     16049     16052     16055
     16051     16049     16052     16053     16051     16049     16052     16054
     16051     16049     16052     16055     16052     16055     16057     16058
     16052     16055     16057     16059     16053     16052     16055     16056
     16053     16052     16055     16057     16054     16052     16055     16056
     16054     16052     16055     16057     16055     16057     16059     16060
     16055     16057     16059     16061     16055     16057     16059     16062
     16056     16055     16057     16058     16056     16055     16057     16059
     16057     16059     16062     16063     16057     16059     16062     16064
     16057     16059     16062     16065     16058     16057     16059     16060
     16058     16057     16059     16061     16058     16057     16059     16062
     16059     16062     16065     16066     16059     16062     16065     16067
     16059     16062     16065     16068     16060     16059     16062     16063
     16060     16059     16062     16064     16060     16059     16062     16065
     16061     16059     16062     16063     16061     16059     16062     16064
     16061     16059     16062     16065     16062     16065     16068     16069
     16062     16065     16068     16070     16062     16065     16068     16071
     16063     16062     16065     16066     16063     16062     16065     16067
     16063     16062     16065     16068     16064     16062     16065     16066
     16064     16062     16065     16067     16064     16062     16065     16068
     16065     16068     16071     16072     16065     16068     16071     16073
     16065     16068     16071     16074     16066     16065     16068     16069
     16066     16065     16068     16070     16066     16065     16068     16071
     16067     16065     16068     16069     16067     16065     16068     16070
     16067     16065     16068     16071     16068     16071     16074     16075
     16068     16071     16074     16076     16068     16071     16074     16077
     16069     16068     16071     16072     16069     16068     16071     16073
     16069     16068     16071     16074     16070     16068     16071     16072
     16070     16068     16071     16073     16070     16068     16071     16074
     16072     16071     16074     16075     16072     16071     16074     16076
     16072     16071     16074     16077     16073     16071     16074     16075
     16073     16071     16074     16076     16073     16071     16074     16077
     16078     16081     16084     16085     16078     16081     16084     16086
     16078     16081     16084     16087     16079     16078     16081     16082
     16079     16078     16081     16083     16079     16078     16081     16084
     16080     16078     16081     16082     16080     16078     16081     16083
     16080     16078     16081     16084     16081     16084     16087     16088
     16081     16084     16087     16089     16081     16084     16087     16090
     16082     16081     16084     16085     16082     16081     16084     16086
     16082     16081     16084     16087     16083     16081     16084     16085
     16083     16081     16084     16086     16083     16081     16084     16087
     16084     16087     16090     16091     16084     16087     16090     16092
     16084     16087     16090     16093     16085     16084     16087     16088
     16085     16084     16087     16089     16085     16084     16087     16090
     16086     16084     16087     16088     16086     16084     16087     16089
     16086     16084     16087     16090     16087     16090     16093     16094
     16087     16090     16093     16095     16087     16090     16093     16096
     16088     16087     16090     16091     16088     16087     16090     16092
     16088     16087     16090     16093     16089     16087     16090     16091
     16089     16087     16090     16092     16089     16087     16090     16093
     16090     16093     16096     16097     16090     16093     16096     16098
     16090     16093     16096     16099     16091     16090     16093     16094
     16091     16090     16093     16095     16091     16090     16093     16096
     16092     16090     16093     16094     16092     16090     16093     16095
     16092     16090     16093     16096     16093     16096     16099     16100
     16093     16096     16099     16101     16093     16096     16099     16102
     16094     16093     16096     16097     16094     16093     16096     16098
     16094     16093     16096     16099     16095     16093     16096     16097
     16095     16093     16096     16098     16095     16093     16096     16099
     16096     16099     16102     16103     16096     16099     16102     16104
     16096     16099     16102     16105     16097     16096     16099     16100
     16097     16096     16099     16101     16097     16096     16099     16102
     16098     16096     16099     16100     16098     16096     16099     16101
     16098     16096     16099     16102     16099     16102     16105     16106
     16099     16102     16105     16107     16099     16102     16105     16108
     16100     16099     16102     16103     16100     16099     16102     16104
     16100     16099     16102     16105     16101     16099     16102     16103
     16101     16099     16102     16104     16101     16099     16102     16105
     16102     16105     16108     16109     16102     16105     16108     16110
     16102     16105     16108     16111     16103     16102     16105     16106
     16103     16102     16105     16107     16103     16102     16105     16108
     16104     16102     16105     16106     16104     16102     16105     16107
     16104     16102     16105     16108     16105     16108     16111     16112
     16105     16108     16111     16113     16105     16108     16111     16114
     16106     16105     16108     16109     16106     16105     16108     16110
     16106     16105     16108     16111     16107     16105     16108     16109
     16107     16105     16108     16110     16107     16105     16108     16111
     16108     16111     16114     16115     16108     16111     16114     16116
     16108     16111     16114     16117     16109     16108     16111     16112
     16109     16108     16111     16113     16109     16108     16111     16114
     16110     16108     16111     16112     16110     16108     16111     16113
     16110     16108     16111     16114     16111     16114     16117     16118
     16111     16114     16117     16119     16111     16114     16117     16120
     16112     16111     16114     16115     16112     16111     16114     16116
     16112     16111     16114     16117     16113     16111     16114     16115
     16113     16111     16114     16116     16113     16111     16114     16117
     16115     16114     16117     16118     16115     16114     16117     16119
     16115     16114     16117     16120     16116     16114     16117     16118
     16116     16114     16117     16119     16116     16114     16117     16120
     16121     16127     16124     16125     16121     16127     16124     16126
     16121     16127     16124     16128     16121     16132     16134     16135
     16121     16132     16136     16137     16121     16132     16136     16138
     16121     16132     16136     16142     16122     16121     16127     16124
     16122     16121     16132     16133     16122     16121     16132     16134
     16122     16121     16132     16136     16123     16121     16127     16124
     16123     16121     16132     16133     16123     16121     16132     16134
     16123     16121     16132     16136     16124     16127     16121     16132
     16124     16128     16129     16130     16124     16128     16129     16131
     16124     16128     16129     16164     16125     16124     16128     16129
     16126     16124     16128     16129     16127     16121     16132     16133
     16127     16121     16132     16134     16127     16121     16132     16136
     16127     16124     16128     16129     16128     16129     16164     16165
     16128     16129     16164     16166     16128     16129     16164     16172
     16129     16164     16166     16167     16129     16164     16172     16173
     16129     16164     16172     16174     16129     16164     16172     16175
     16130     16129     16164     16165     16130     16129     16164     16166
     16130     16129     16164     16172     16131     16129     16164     16165
     16131     16129     16164     16166     16131     16129     16164     16172
     16132     16136     16142     16139     16133     16132     16134     16135
     16133     16132     16136     16137     16133     16132     16136     16138
     16133     16132     16136     16142     16134     16132     16136     16137
     16134     16132     16136     16138     16134     16132     16136     16142
     16135     16134     16132     16136     16136     16142     16139     16140
     16136     16142     16139     16141     16136     16142     16139     16143
     16137     16136     16142     16139     16138     16136     16142     16139
     16139     16143     16144     16145     16139     16143     16144     16146
     16139     16143     16144     16147     16140     16139     16143     16144
     16141     16139     16143     16144     16142     16139     16143     16144
     16143     16144     16147     16148     16143     16144     16147     16149
     16143     16144     16147     16155     16144     16147     16149     16150
     16144     16147     16155     16156     16144     16147     16155     16157
     16144     16147     16155     16158     16145     16144     16147     16148
     16145     16144     16147     16149     16145     16144     16147     16155
     16146     16144     16147     16148     16146     16144     16147     16149
     16146     16144     16147     16155     16147     16149     16150     16151
     16147     16149     16150     16152     16147     16155     16158     16159
     16148     16147     16149     16150     16148     16147     16155     16156
     16148     16147     16155     16157     16148     16147     16155     16158
     16149     16147     16155     16156     16149     16147     16155     16157
     16149     16147     16155     16158     16149     16150     16152     16153
     16149     16150     16152     16154     16149     16150     16152     16181
     16150     16149     16147     16155     16150     16152     16181     16182
     16150     16152     16181     16183     16150     16152     16181     16184
     16151     16150     16152     16153     16151     16150     16152     16154
     16151     16150     16152     16181     16152     16181     16184     16185
     16152     16181     16184     16186     16152     16181     16184     16187
     16153     16152     16181     16182     16153     16152     16181     16183
     16153     16152     16181     16184     16154     16152     16181     16182
     16154     16152     16181     16183     16154     16152     16181     16184
     16155     16158     16159     16160     16155     16158     16159     16161
     16156     16155     16158     16159     16157     16155     16158     16159
     16158     16159     16161     16162     16158     16159     16161     16163
     16158     16159     16161     16228     16159     16161     16228     16229
     16159     16161     16228     16230     16159     16161     16228     16231
     16160     16159     16161     16162     16160     16159     16161     16163
     16160     16159     16161     16228     16161     16228     16231     16232
     16161     16228     16231     16233     16161     16228     16231     16234
     16162     16161     16228     16229     16162     16161     16228     16230
     16162     16161     16228     16231     16163     16161     16228     16229
     16163     16161     16228     16230     16163     16161     16228     16231
     16164     16166     16167     16168     16164     16166     16167     16169
     16164     16172     16175     16176     16165     16164     16166     16167
     16165     16164     16172     16173     16165     16164     16172     16174
     16165     16164     16172     16175     16166     16164     16172     16173
     16166     16164     16172     16174     16166     16164     16172     16175
     16166     16167     16169     16170     16166     16167     16169     16171
     16166     16167     16169     16271     16167     16166     16164     16172
     16167     16169     16271     16272     16167     16169     16271     16273
     16167     16169     16271     16274     16168     16167     16169     16170
     16168     16167     16169     16171     16168     16167     16169     16271
     16169     16271     16274     16275     16169     16271     16274     16276
     16169     16271     16274     16277     16170     16169     16271     16272
     16170     16169     16271     16273     16170     16169     16271     16274
     16171     16169     16271     16272     16171     16169     16271     16273
     16171     16169     16271     16274     16172     16175     16176     16177
     16172     16175     16176     16178     16173     16172     16175     16176
     16174     16172     16175     16176     16175     16176     16178     16179
     16175     16176     16178     16180     16175     16176     16178     16318
     16176     16178     16318     16319     16176     16178     16318     16320
     16176     16178     16318     16321     16177     16176     16178     16179
     16177     16176     16178     16180     16177     16176     16178     16318
     16178     16318     16321     16322     16178     16318     16321     16323
     16178     16318     16321     16324     16179     16178     16318     16319
     16179     16178     16318     16320     16179     16178     16318     16321
     16180     16178     16318     16319     16180     16178     16318     16320
     16180     16178     16318     16321     16181     16184     16187     16188
     16181     16184     16187     16189     16181     16184     16187     16190
     16182     16181     16184     16185     16182     16181     16184     16186
     16182     16181     16184     16187     16183     16181     16184     16185
     16183     16181     16184     16186     16183     16181     16184     16187
     16184     16187     16190     16191     16184     16187     16190     16192
     16184     16187     16190     16193     16185     16184     16187     16188
     16185     16184     16187     16189     16185     16184     16187     16190
     16186     16184     16187     16188     16186     16184     16187     16189
     16186     16184     16187     16190     16187     16190     16193     16194
     16187     16190     16193     16195     16187     16190     16193     16196
     16188     16187     16190     16191     16188     16187     16190     16192
     16188     16187     16190     16193     16189     16187     16190     16191
     16189     16187     16190     16192     16189     16187     16190     16193
     16190     16193     16196     16197     16190     16193     16196     16198
     16190     16193     16196     16199     16191     16190     16193     16194
     16191     16190     16193     16195     16191     16190     16193     16196
     16192     16190     16193     16194     16192     16190     16193     16195
     16192     16190     16193     16196     16193     16196     16199     16200
     16193     16196     16199     16201     16193     16196     16199     16202
     16194     16193     16196     16197     16194     16193     16196     16198
     16194     16193     16196     16199     16195     16193     16196     16197
     16195     16193     16196     16198     16195     16193     16196     16199
     16196     16199     16202     16203     16196     16199     16202     16204
     16196     16199     16202     16205     16197     16196     16199     16200
     16197     16196     16199     16201     16197     16196     16199     16202
     16198     16196     16199     16200     16198     16196     16199     16201
     16198     16196     16199     16202     16199     16202     16205     16206
     16199     16202     16205     16207     16200     16199     16202     16203
     16200     16199     16202     16204     16200     16199     16202     16205
     16201     16199     16202     16203     16201     16199     16202     16204
     16201     16199     16202     16205     16202     16205     16207     16208
     16202     16205     16207     16209     16203     16202     16205     16206
     16203     16202     16205     16207     16204     16202     16205     16206
     16204     16202     16205     16207     16205     16207     16209     16210
     16205     16207     16209     16211     16205     16207     16209     16212
     16206     16205     16207     16208     16206     16205     16207     16209
     16207     16209     16212     16213     16207     16209     16212     16214
     16207     16209     16212     16215     16208     16207     16209     16210
     16208     16207     16209     16211     16208     16207     16209     16212
     16209     16212     16215     16216     16209     16212     16215     16217
     16209     16212     16215     16218     16210     16209     16212     16213
     16210     16209     16212     16214     16210     16209     16212     16215
     16211     16209     16212     16213     16211     16209     16212     16214
     16211     16209     16212     16215     16212     16215     16218     16219
     16212     16215     16218     16220     16212     16215     16218     16221
     16213     16212     16215     16216     16213     16212     16215     16217
     16213     16212     16215     16218     16214     16212     16215     16216
     16214     16212     16215     16217     16214     16212     16215     16218
     16215     16218     16221     16222     16215     16218     16221     16223
     16215     16218     16221     16224     16216     16215     16218     16219
     16216     16215     16218     16220     16216     16215     16218     16221
     16217     16215     16218     16219     16217     16215     16218     16220
     16217     16215     16218     16221     16218     16221     16224     16225
     16218     16221     16224     16226     16218     16221     16224     16227
     16219     16218     16221     16222     16219     16218     16221     16223
     16219     16218     16221     16224     16220     16218     16221     16222
     16220     16218     16221     16223     16220     16218     16221     16224
     16222     16221     16224     16225     16222     16221     16224     16226
     16222     16221     16224     16227     16223     16221     16224     16225
     16223     16221     16224     16226     16223     16221     16224     16227
     16228     16231     16234     16235     16228     16231     16234     16236
     16228     16231     16234     16237     16229     16228     16231     16232
     16229     16228     16231     16233     16229     16228     16231     16234
     16230     16228     16231     16232     16230     16228     16231     16233
     16230     16228     16231     16234     16231     16234     16237     16238
     16231     16234     16237     16239     16231     16234     16237     16240
     16232     16231     16234     16235     16232     16231     16234     16236
     16232     16231     16234     16237     16233     16231     16234     16235
     16233     16231     16234     16236     16233     16231     16234     16237
     16234     16237     16240     16241     16234     16237     16240     16242
     16234     16237     16240     16243     16235     16234     16237     16238
     16235     16234     16237     16239     16235     16234     16237     16240
     16236     16234     16237     16238     16236     16234     16237     16239
     16236     16234     16237     16240     16237     16240     16243     16244
     16237     16240     16243     16245     16237     16240     16243     16246
     16238     16237     16240     16241     16238     16237     16240     16242
     16238     16237     16240     16243     16239     16237     16240     16241
     16239     16237     16240     16242     16239     16237     16240     16243
     16240     16243     16246     16247     16240     16243     16246     16248
     16240     16243     16246     16249     16241     16240     16243     16244
     16241     16240     16243     16245     16241     16240     16243     16246
     16242     16240     16243     16244     16242     16240     16243     16245
     16242     16240     16243     16246     16243     16246     16249     16250
     16243     16246     16249     16251     16243     16246     16249     16252
     16244     16243     16246     16247     16244     16243     16246     16248
     16244     16243     16246     16249     16245     16243     16246     16247
     16245     16243     16246     16248     16245     16243     16246     16249
     16246     16249     16252     16253     16246     16249     16252     16254
     16246     16249     16252     16255     16247     16246     16249     16250
     16247     16246     16249     16251     16247     16246     16249     16252
     16248     16246     16249     16250     16248     16246     16249     16251
     16248     16246     16249     16252     16249     16252     16255     16256
     16249     16252     16255     16257     16249     16252     16255     16258
     16250     16249     16252     16253     16250     16249     16252     16254
     16250     16249     16252     16255     16251     16249     16252     16253
     16251     16249     16252     16254     16251     16249     16252     16255
     16252     16255     16258     16259     16252     16255     16258     16260
     16252     16255     16258     16261     16253     16252     16255     16256
     16253     16252     16255     16257     16253     16252     16255     16258
     16254     16252     16255     16256     16254     16252     16255     16257
     16254     16252     16255     16258     16255     16258     16261     16262
     16255     16258     16261     16263     16255     16258     16261     16264
     16256     16255     16258     16259     16256     16255     16258     16260
     16256     16255     16258     16261     16257     16255     16258     16259
     16257     16255     16258     16260     16257     16255     16258     16261
     16258     16261     16264     16265     16258     16261     16264     16266
     16258     16261     16264     16267     16259     16258     16261     16262
     16259     16258     16261     16263     16259     16258     16261     16264
     16260     16258     16261     16262     16260     16258     16261     16263
     16260     16258     16261     16264     16261     16264     16267     16268
     16261     16264     16267     16269     16261     16264     16267     16270
     16262     16261     16264     16265     16262     16261     16264     16266
     16262     16261     16264     16267     16263     16261     16264     16265
     16263     16261     16264     16266     16263     16261     16264     16267
     16265     16264     16267     16268     16265     16264     16267     16269
     16265     16264     16267     16270     16266     16264     16267     16268
     16266     16264     16267     16269     16266     16264     16267     16270
     16271     16274     16277     16278     16271     16274     16277     16279
     16271     16274     16277     16280     16272     16271     16274     16275
     16272     16271     16274     16276     16272     16271     16274     16277
     16273     16271     16274     16275     16273     16271     16274     16276
     16273     16271     16274     16277     16274     16277     16280     16281
     16274     16277     16280     16282     16274     16277     16280     16283
     16275     16274     16277     16278     16275     16274     16277     16279
     16275     16274     16277     16280     16276     16274     16277     16278
     16276     16274     16277     16279     16276     16274     16277     16280
     16277     16280     16283     16284     16277     16280     16283     16285
     16277     16280     16283     16286     16278     16277     16280     16281
     16278     16277     16280     16282     16278     16277     16280     16283
     16279     16277     16280     16281     16279     16277     16280     16282
     16279     16277     16280     16283     16280     16283     16286     16287
     16280     16283     16286     16288     16280     16283     16286     16289
     16281     16280     16283     16284     16281     16280     16283     16285
     16281     16280     16283     16286     16282     16280     16283     16284
     16282     16280     16283     16285     16282     16280     16283     16286
     16283     16286     16289     16290     16283     16286     16289     16291
     16283     16286     16289     16292     16284     16283     16286     16287
     16284     16283     16286     16288     16284     16283     16286     16289
     16285     16283     16286     16287     16285     16283     16286     16288
     16285     16283     16286     16289     16286     16289     16292     16293
     16286     16289     16292     16294     16286     16289     16292     16295
     16287     16286     16289     16290     16287     16286     16289     16291
     16287     16286     16289     16292     16288     16286     16289     16290
     16288     16286     16289     16291     16288     16286     16289     16292
     16289     16292     16295     16296     16289     16292     16295     16297
     16290     16289     16292     16293     16290     16289     16292     16294
     16290     16289     16292     16295     16291     16289     16292     16293
     16291     16289     16292     16294     16291     16289     16292     16295
     16292     16295     16297     16298     16292     16295     16297     16299
     16293     16292     16295     16296     16293     16292     16295     16297
     16294     16292     16295     16296     16294     16292     16295     16297
     16295     16297     16299     16300     16295     16297     16299     16301
     16295     16297     16299     16302     16296     16295     16297     16298
     16296     16295     16297     16299     16297     16299     16302     16303
     16297     16299     16302     16304     16297     16299     16302     16305
     16298     16297     16299     16300     16298     16297     16299     16301
     16298     16297     16299     16302     16299     16302     16305     16306
     16299     16302     16305     16307     16299     16302     16305     16308
     16300     16299     16302     16303     16300     16299     16302     16304
     16300     16299     16302     16305     16301     16299     16302     16303
     16301     16299     16302     16304     16301     16299     16302     16305
     16302     16305     16308     16309     16302     16305     16308     16310
     16302     16305     16308     16311     16303     16302     16305     16306
     16303     16302     16305     16307     16303     16302     16305     16308
     16304     16302     16305     16306     16304     16302     16305     16307
     16304     16302     16305     16308     16305     16308     16311     16312
     16305     16308     16311     16313     16305     16308     16311     16314
     16306     16305     16308     16309     16306     16305     16308     16310
     16306     16305     16308     16311     16307     16305     16308     16309
     16307     16305     16308     16310     16307     16305     16308     16311
     16308     16311     16314     16315     16308     16311     16314     16316
     16308     16311     16314     16317     16309     16308     16311     16312
     16309     16308     16311     16313     16309     16308     16311     16314
     16310     16308     16311     16312     16310     16308     16311     16313
     16310     16308     16311     16314     16312     16311     16314     16315
     16312     16311     16314     16316     16312     16311     16314     16317
     16313     16311     16314     16315     16313     16311     16314     16316
     16313     16311     16314     16317     16318     16321     16324     16325
     16318     16321     16324     16326     16318     16321     16324     16327
     16319     16318     16321     16322     16319     16318     16321     16323
     16319     16318     16321     16324     16320     16318     16321     16322
     16320     16318     16321     16323     16320     16318     16321     16324
     16321     16324     16327     16328     16321     16324     16327     16329
     16321     16324     16327     16330     16322     16321     16324     16325
     16322     16321     16324     16326     16322     16321     16324     16327
     16323     16321     16324     16325     16323     16321     16324     16326
     16323     16321     16324     16327     16324     16327     16330     16331
     16324     16327     16330     16332     16324     16327     16330     16333
     16325     16324     16327     16328     16325     16324     16327     16329
     16325     16324     16327     16330     16326     16324     16327     16328
     16326     16324     16327     16329     16326     16324     16327     16330
     16327     16330     16333     16334     16327     16330     16333     16335
     16327     16330     16333     16336     16328     16327     16330     16331
     16328     16327     16330     16332     16328     16327     16330     16333
     16329     16327     16330     16331     16329     16327     16330     16332
     16329     16327     16330     16333     16330     16333     16336     16337
     16330     16333     16336     16338     16330     16333     16336     16339
     16331     16330     16333     16334     16331     16330     16333     16335
     16331     16330     16333     16336     16332     16330     16333     16334
     16332     16330     16333     16335     16332     16330     16333     16336
     16333     16336     16339     16340     16333     16336     16339     16341
     16333     16336     16339     16342     16334     16333     16336     16337
     16334     16333     16336     16338     16334     16333     16336     16339
     16335     16333     16336     16337     16335     16333     16336     16338
     16335     16333     16336     16339     16336     16339     16342     16343
     16336     16339     16342     16344     16336     16339     16342     16345
     16337     16336     16339     16340     16337     16336     16339     16341
     16337     16336     16339     16342     16338     16336     16339     16340
     16338     16336     16339     16341     16338     16336     16339     16342
     16339     16342     16345     16346     16339     16342     16345     16347
     16339     16342     16345     16348     16340     16339     16342     16343
     16340     16339     16342     16344     16340     16339     16342     16345
     16341     16339     16342     16343     16341     16339     16342     16344
     16341     16339     16342     16345     16342     16345     16348     16349
     16342     16345     16348     16350     16342     16345     16348     16351
     16343     16342     16345     16346     16343     16342     16345     16347
     16343     16342     16345     16348     16344     16342     16345     16346
     16344     16342     16345     16347     16344     16342     16345     16348
     16345     16348     16351     16352     16345     16348     16351     16353
     16345     16348     16351     16354     16346     16345     16348     16349
     16346     16345     16348     16350     16346     16345     16348     16351
     16347     16345     16348     16349     16347     16345     16348     16350
     16347     16345     16348     16351     16348     16351     16354     16355
     16348     16351     16354     16356     16348     16351     16354     16357
     16349     16348     16351     16352     16349     16348     16351     16353
     16349     16348     16351     16354     16350     16348     16351     16352
     16350     16348     16351     16353     16350     16348     16351     16354
     16351     16354     16357     16358     16351     16354     16357     16359
     16351     16354     16357     16360     16352     16351     16354     16355
     16352     16351     16354     16356     16352     16351     16354     16357
     16353     16351     16354     16355     16353     16351     16354     16356
     16353     16351     16354     16357     16355     16354     16357     16358
     16355     16354     16357     16359     16355     16354     16357     16360
     16356     16354     16357     16358     16356     16354     16357     16359
     16356     16354     16357     16360     16361     16365     16368     16369
     16361     16365     16368     16370     16361     16365     16368     16375
     16362     16361     16365     16366     16362     16361     16365     16367
     16362     16361     16365     16368     16363     16361     16365     16366
     16363     16361     16365     16367     16363     16361     16365     16368
     16364     16361     16365     16366     16364     16361     16365     16367
     16364     16361     16365     16368     16365     16368     16375     16371
     16366     16365     16368     16369     16366     16365     16368     16370
     16366     16365     16368     16375     16367     16365     16368     16369
     16367     16365     16368     16370     16367     16365     16368     16375
     16368     16375     16371     16372     16368     16375     16371     16373
     16368     16375     16371     16374     16369     16368     16375     16371
     16370     16368     16375     16371     16371     16374     16376     16377
     16371     16374     16376     16378     16371     16374     16376     16379
     16372     16371     16374     16376     16373     16371     16374     16376
     16374     16376     16379     16380     16374     16376     16379     16381
     16374     16376     16379     16387     16375     16371     16374     16376
     16376     16379     16381     16382     16376     16379     16387     16388
     16376     16379     16387     16389     16376     16379     16387     16390
     16377     16376     16379     16380     16377     16376     16379     16381
     16377     16376     16379     16387     16378     16376     16379     16380
     16378     16376     16379     16381     16378     16376     16379     16387
     16379     16381     16382     16383     16379     16381     16382     16384
     16379     16387     16390     16391     16380     16379     16381     16382
     16380     16379     16387     16388     16380     16379     16387     16389
     16380     16379     16387     16390     16381     16379     16387     16388
     16381     16379     16387     16389     16381     16379     16387     16390
     16381     16382     16384     16385     16381     16382     16384     16386
     16381     16382     16384     16396     16382     16381     16379     16387
     16382     16384     16396     16397     16382     16384     16396     16398
     16382     16384     16396     16399     16383     16382     16384     16385
     16383     16382     16384     16386     16383     16382     16384     16396
     16384     16396     16399     16400     16384     16396     16399     16401
     16384     16396     16399     16402     16385     16384     16396     16397
     16385     16384     16396     16398     16385     16384     16396     16399
     16386     16384     16396     16397     16386     16384     16396     16398
     16386     16384     16396     16399     16387     16390     16391     16392
     16387     16390     16391     16393     16388     16387     16390     16391
     16389     16387     16390     16391     16390     16391     16393     16394
     16390     16391     16393     16395     16390     16391     16393     16440
     16391     16393     16440     16441     16391     16393     16440     16442
     16391     16393     16440     16443     16392     16391     16393     16394
     16392     16391     16393     16395     16392     16391     16393     16440
     16393     16440     16443     16444     16393     16440     16443     16445
     16393     16440     16443     16446     16394     16393     16440     16441
     16394     16393     16440     16442     16394     16393     16440     16443
     16395     16393     16440     16441     16395     16393     16440     16442
     16395     16393     16440     16443     16396     16399     16402     16403
     16396     16399     16402     16404     16396     16399     16402     16405
     16397     16396     16399     16400     16397     16396     16399     16401
     16397     16396     16399     16402     16398     16396     16399     16400
     16398     16396     16399     16401     16398     16396     16399     16402
     16399     16402     16405     16406     16399     16402     16405     16407
     16399     16402     16405     16408     16400     16399     16402     16403
     16400     16399     16402     16404     16400     16399     16402     16405
     16401     16399     16402     16403     16401     16399     16402     16404
     16401     16399     16402     16405     16402     16405     16408     16409
     16402     16405     16408     16410     16402     16405     16408     16411
     16403     16402     16405     16406     16403     16402     16405     16407
     16403     16402     16405     16408     16404     16402     16405     16406
     16404     16402     16405     16407     16404     16402     16405     16408
     16405     16408     16411     16412     16405     16408     16411     16413
     16405     16408     16411     16414     16406     16405     16408     16409
     16406     16405     16408     16410     16406     16405     16408     16411
     16407     16405     16408     16409     16407     16405     16408     16410
     16407     16405     16408     16411     16408     16411     16414     16415
     16408     16411     16414     16416     16408     16411     16414     16419
     16409     16408     16411     16412     16409     16408     16411     16413
     16409     16408     16411     16414     16410     16408     16411     16412
     16410     16408     16411     16413     16410     16408     16411     16414
     16411     16414     16416     16417     16411     16414     16416     16418
     16411     16414     16416     16419     16411     16414     16419     16416
     16411     16414     16419     16420     16411     16414     16419     16421
     16412     16411     16414     16415     16412     16411     16414     16416
     16412     16411     16414     16419     16413     16411     16414     16415
     16413     16411     16414     16416     16413     16411     16414     16419
     16414     16416     16419     16420     16414     16416     16419     16421
     16414     16419     16416     16417     16414     16419     16416     16418
     16414     16419     16421     16422     16414     16419     16421     16423
     16414     16419     16421     16424     16415     16414     16416     16417
     16415     16414     16416     16418     16415     16414     16416     16419
     16415     16414     16419     16416     16415     16414     16419     16420
     16415     16414     16419     16421     16416     16414     16419     16420
     16416     16414     16419     16421     16416     16419     16421     16422
     16416     16419     16421     16423     16416     16419     16421     16424
     16417     16416     16414     16419     16417     16416     16419     16420
     16417     16416     16419     16421     16418     16416     16414     16419
     16418     16416     16419     16420     16418     16416     16419     16421
     16419     16421     16424     16425     16419     16421     16424     16426
     16419     16421     16424     16427     16420     16419     16421     16422
     16420     16419     16421     16423     16420     16419     16421     16424
     16421     16424     16427     16428     16421     16424     16427     16429
     16421     16424     16427     16430     16422     16421     16424     16425
     16422     16421     16424     16426     16422     16421     16424     16427
     16423     16421     16424     16425     16423     16421     16424     16426
     16423     16421     16424     16427     16424     16427     16430     16431
     16424     16427     16430     16432     16424     16427     16430     16433
     16425     16424     16427     16428     16425     16424     16427     16429
     16425     16424     16427     16430     16426     16424     16427     16428
     16426     16424     16427     16429     16426     16424     16427     16430
     16427     16430     16433     16434     16427     16430     16433     16435
     16427     16430     16433     16436     16428     16427     16430     16431
     16428     16427     16430     16432     16428     16427     16430     16433
     16429     16427     16430     16431     16429     16427     16430     16432
     16429     16427     16430     16433     16430     16433     16436     16437
     16430     16433     16436     16438     16430     16433     16436     16439
     16431     16430     16433     16434     16431     16430     16433     16435
     16431     16430     16433     16436     16432     16430     16433     16434
     16432     16430     16433     16435     16432     16430     16433     16436
     16434     16433     16436     16437     16434     16433     16436     16438
     16434     16433     16436     16439     16435     16433     16436     16437
     16435     16433     16436     16438     16435     16433     16436     16439
     16440     16443     16446     16447     16440     16443     16446     16448
     16440     16443     16446     16449     16441     16440     16443     16444
     16441     16440     16443     16445     16441     16440     16443     16446
     16442     16440     16443     16444     16442     16440     16443     16445
     16442     16440     16443     16446     16443     16446     16449     16450
     16443     16446     16449     16451     16443     16446     16449     16452
     16444     16443     16446     16447     16444     16443     16446     16448
     16444     16443     16446     16449     16445     16443     16446     16447
     16445     16443     16446     16448     16445     16443     16446     16449
     16446     16449     16452     16453     16446     16449     16452     16454
     16446     16449     16452     16455     16447     16446     16449     16450
     16447     16446     16449     16451     16447     16446     16449     16452
     16448     16446     16449     16450     16448     16446     16449     16451
     16448     16446     16449     16452     16449     16452     16455     16456
     16449     16452     16455     16457     16449     16452     16455     16458
     16450     16449     16452     16453     16450     16449     16452     16454
     16450     16449     16452     16455     16451     16449     16452     16453
     16451     16449     16452     16454     16451     16449     16452     16455
     16452     16455     16458     16459     16452     16455     16458     16460
     16452     16455     16458     16461     16453     16452     16455     16456
     16453     16452     16455     16457     16453     16452     16455     16458
     16454     16452     16455     16456     16454     16452     16455     16457
     16454     16452     16455     16458     16455     16458     16461     16462
     16455     16458     16461     16463     16455     16458     16461     16464
     16456     16455     16458     16459     16456     16455     16458     16460
     16456     16455     16458     16461     16457     16455     16458     16459
     16457     16455     16458     16460     16457     16455     16458     16461
     16458     16461     16464     16465     16458     16461     16464     16466
     16458     16461     16464     16467     16459     16458     16461     16462
     16459     16458     16461     16463     16459     16458     16461     16464
     16460     16458     16461     16462     16460     16458     16461     16463
     16460     16458     16461     16464     16461     16464     16467     16468
     16461     16464     16467     16469     16461     16464     16467     16470
     16462     16461     16464     16465     16462     16461     16464     16466
     16462     16461     16464     16467     16463     16461     16464     16465
     16463     16461     16464     16466     16463     16461     16464     16467
     16464     16467     16470     16471     16464     16467     16470     16472
     16464     16467     16470     16473     16465     16464     16467     16468
     16465     16464     16467     16469     16465     16464     16467     16470
     16466     16464     16467     16468     16466     16464     16467     16469
     16466     16464     16467     16470     16467     16470     16473     16474
     16467     16470     16473     16475     16467     16470     16473     16476
     16468     16467     16470     16471     16468     16467     16470     16472
     16468     16467     16470     16473     16469     16467     16470     16471
     16469     16467     16470     16472     16469     16467     16470     16473
     16470     16473     16476     16477     16470     16473     16476     16478
     16470     16473     16476     16479     16471     16470     16473     16474
     16471     16470     16473     16475     16471     16470     16473     16476
     16472     16470     16473     16474     16472     16470     16473     16475
     16472     16470     16473     16476     16473     16476     16479     16480
     16473     16476     16479     16481     16473     16476     16479     16482
     16474     16473     16476     16477     16474     16473     16476     16478
     16474     16473     16476     16479     16475     16473     16476     16477
     16475     16473     16476     16478     16475     16473     16476     16479
     16477     16476     16479     16480     16477     16476     16479     16481
     16477     16476     16479     16482     16478     16476     16479     16480
     16478     16476     16479     16481     16478     16476     16479     16482
     16483     16487     16490     16491     16483     16487     16490     16492
     16483     16487     16490     16497     16484     16483     16487     16488
     16484     16483     16487     16489     16484     16483     16487     16490
     16485     16483     16487     16488     16485     16483     16487     16489
     16485     16483     16487     16490     16486     16483     16487     16488
     16486     16483     16487     16489     16486     16483     16487     16490
     16487     16490     16497     16493     16488     16487     16490     16491
     16488     16487     16490     16492     16488     16487     16490     16497
     16489     16487     16490     16491     16489     16487     16490     16492
     16489     16487     16490     16497     16490     16497     16493     16494
     16490     16497     16493     16495     16490     16497     16493     16496
     16491     16490     16497     16493     16492     16490     16497     16493
     16493     16496     16498     16499     16493     16496     16498     16500
     16493     16496     16498     16501     16494     16493     16496     16498
     16495     16493     16496     16498     16496     16498     16501     16502
     16496     16498     16501     16503     16496     16498     16501     16509
     16497     16493     16496     16498     16498     16501     16503     16504
     16498     16501     16509     16510     16498     16501     16509     16511
     16498     16501     16509     16512     16499     16498     16501     16502
     16499     16498     16501     16503     16499     16498     16501     16509
     16500     16498     16501     16502     16500     16498     16501     16503
     16500     16498     16501     16509     16501     16503     16504     16505
     16501     16503     16504     16506     16501     16509     16512     16513
     16502     16501     16503     16504     16502     16501     16509     16510
     16502     16501     16509     16511     16502     16501     16509     16512
     16503     16501     16509     16510     16503     16501     16509     16511
     16503     16501     16509     16512     16503     16504     16506     16507
     16503     16504     16506     16508     16503     16504     16506     16518
     16504     16503     16501     16509     16504     16506     16518     16519
     16504     16506     16518     16520     16504     16506     16518     16521
     16505     16504     16506     16507     16505     16504     16506     16508
     16505     16504     16506     16518     16506     16518     16521     16522
     16506     16518     16521     16523     16506     16518     16521     16524
     16507     16506     16518     16519     16507     16506     16518     16520
     16507     16506     16518     16521     16508     16506     16518     16519
     16508     16506     16518     16520     16508     16506     16518     16521
     16509     16512     16513     16514     16509     16512     16513     16515
     16510     16509     16512     16513     16511     16509     16512     16513
     16512     16513     16515     16516     16512     16513     16515     16517
     16512     16513     16515     16562     16513     16515     16562     16563
     16513     16515     16562     16564     16513     16515     16562     16565
     16514     16513     16515     16516     16514     16513     16515     16517
     16514     16513     16515     16562     16515     16562     16565     16566
     16515     16562     16565     16567     16515     16562     16565     16568
     16516     16515     16562     16563     16516     16515     16562     16564
     16516     16515     16562     16565     16517     16515     16562     16563
     16517     16515     16562     16564     16517     16515     16562     16565
     16518     16521     16524     16525     16518     16521     16524     16526
     16518     16521     16524     16527     16519     16518     16521     16522
     16519     16518     16521     16523     16519     16518     16521     16524
     16520     16518     16521     16522     16520     16518     16521     16523
     16520     16518     16521     16524     16521     16524     16527     16528
     16521     16524     16527     16529     16521     16524     16527     16530
     16522     16521     16524     16525     16522     16521     16524     16526
     16522     16521     16524     16527     16523     16521     16524     16525
     16523     16521     16524     16526     16523     16521     16524     16527
     16524     16527     16530     16531     16524     16527     16530     16532
     16524     16527     16530     16533     16525     16524     16527     16528
     16525     16524     16527     16529     16525     16524     16527     16530
     16526     16524     16527     16528     16526     16524     16527     16529
     16526     16524     16527     16530     16527     16530     16533     16534
     16527     16530     16533     16535     16527     16530     16533     16536
     16528     16527     16530     16531     16528     16527     16530     16532
     16528     16527     16530     16533     16529     16527     16530     16531
     16529     16527     16530     16532     16529     16527     16530     16533
     16530     16533     16536     16537     16530     16533     16536     16538
     16530     16533     16536     16541     16531     16530     16533     16534
     16531     16530     16533     16535     16531     16530     16533     16536
     16532     16530     16533     16534     16532     16530     16533     16535
     16532     16530     16533     16536     16533     16536     16538     16539
     16533     16536     16538     16540     16533     16536     16538     16541
     16533     16536     16541     16538     16533     16536     16541     16542
     16533     16536     16541     16543     16534     16533     16536     16537
     16534     16533     16536     16538     16534     16533     16536     16541
     16535     16533     16536     16537     16535     16533     16536     16538
     16535     16533     16536     16541     16536     16538     16541     16542
     16536     16538     16541     16543     16536     16541     16538     16539
     16536     16541     16538     16540     16536     16541     16543     16544
     16536     16541     16543     16545     16536     16541     16543     16546
     16537     16536     16538     16539     16537     16536     16538     16540
     16537     16536     16538     16541     16537     16536     16541     16538
     16537     16536     16541     16542     16537     16536     16541     16543
     16538     16536     16541     16542     16538     16536     16541     16543
     16538     16541     16543     16544     16538     16541     16543     16545
     16538     16541     16543     16546     16539     16538     16536     16541
     16539     16538     16541     16542     16539     16538     16541     16543
     16540     16538     16536     16541     16540     16538     16541     16542
     16540     16538     16541     16543     16541     16543     16546     16547
     16541     16543     16546     16548     16541     16543     16546     16549
     16542     16541     16543     16544     16542     16541     16543     16545
     16542     16541     16543     16546     16543     16546     16549     16550
     16543     16546     16549     16551     16543     16546     16549     16552
     16544     16543     16546     16547     16544     16543     16546     16548
     16544     16543     16546     16549     16545     16543     16546     16547
     16545     16543     16546     16548     16545     16543     16546     16549
     16546     16549     16552     16553     16546     16549     16552     16554
     16546     16549     16552     16555     16547     16546     16549     16550
     16547     16546     16549     16551     16547     16546     16549     16552
     16548     16546     16549     16550     16548     16546     16549     16551
     16548     16546     16549     16552     16549     16552     16555     16556
     16549     16552     16555     16557     16549     16552     16555     16558
     16550     16549     16552     16553     16550     16549     16552     16554
     16550     16549     16552     16555     16551     16549     16552     16553
     16551     16549     16552     16554     16551     16549     16552     16555
     16552     16555     16558     16559     16552     16555     16558     16560
     16552     16555     16558     16561     16553     16552     16555     16556
     16553     16552     16555     16557     16553     16552     16555     16558
     16554     16552     16555     16556     16554     16552     16555     16557
     16554     16552     16555     16558     16556     16555     16558     16559
     16556     16555     16558     16560     16556     16555     16558     16561
     16557     16555     16558     16559     16557     16555     16558     16560
     16557     16555     16558     16561     16562     16565     16568     16569
     16562     16565     16568     16570     16562     16565     16568     16571
     16563     16562     16565     16566     16563     16562     16565     16567
     16563     16562     16565     16568     16564     16562     16565     16566
     16564     16562     16565     16567     16564     16562     16565     16568
     16565     16568     16571     16572     16565     16568     16571     16573
     16565     16568     16571     16574     16566     16565     16568     16569
     16566     16565     16568     16570     16566     16565     16568     16571
     16567     16565     16568     16569     16567     16565     16568     16570
     16567     16565     16568     16571     16568     16571     16574     16575
     16568     16571     16574     16576     16568     16571     16574     16577
     16569     16568     16571     16572     16569     16568     16571     16573
     16569     16568     16571     16574     16570     16568     16571     16572
     16570     16568     16571     16573     16570     16568     16571     16574
     16571     16574     16577     16578     16571     16574     16577     16579
     16571     16574     16577     16580     16572     16571     16574     16575
     16572     16571     16574     16576     16572     16571     16574     16577
     16573     16571     16574     16575     16573     16571     16574     16576
     16573     16571     16574     16577     16574     16577     16580     16581
     16574     16577     16580     16582     16574     16577     16580     16583
     16575     16574     16577     16578     16575     16574     16577     16579
     16575     16574     16577     16580     16576     16574     16577     16578
     16576     16574     16577     16579     16576     16574     16577     16580
     16577     16580     16583     16584     16577     16580     16583     16585
     16577     16580     16583     16586     16578     16577     16580     16581
     16578     16577     16580     16582     16578     16577     16580     16583
     16579     16577     16580     16581     16579     16577     16580     16582
     16579     16577     16580     16583     16580     16583     16586     16587
     16580     16583     16586     16588     16580     16583     16586     16589
     16581     16580     16583     16584     16581     16580     16583     16585
     16581     16580     16583     16586     16582     16580     16583     16584
     16582     16580     16583     16585     16582     16580     16583     16586
     16583     16586     16589     16590     16583     16586     16589     16591
     16583     16586     16589     16592     16584     16583     16586     16587
     16584     16583     16586     16588     16584     16583     16586     16589
     16585     16583     16586     16587     16585     16583     16586     16588
     16585     16583     16586     16589     16586     16589     16592     16593
     16586     16589     16592     16594     16586     16589     16592     16595
     16587     16586     16589     16590     16587     16586     16589     16591
     16587     16586     16589     16592     16588     16586     16589     16590
     16588     16586     16589     16591     16588     16586     16589     16592
     16589     16592     16595     16596     16589     16592     16595     16597
     16589     16592     16595     16598     16590     16589     16592     16593
     16590     16589     16592     16594     16590     16589     16592     16595
     16591     16589     16592     16593     16591     16589     16592     16594
     16591     16589     16592     16595     16592     16595     16598     16599
     16592     16595     16598     16600     16592     16595     16598     16601
     16593     16592     16595     16596     16593     16592     16595     16597
     16593     16592     16595     16598     16594     16592     16595     16596
     16594     16592     16595     16597     16594     16592     16595     16598
     16596     16595     16598     16599     16596     16595     16598     16600
     16596     16595     16598     16601     16597     16595     16598     16599
     16597     16595     16598     16600     16597     16595     16598     16601
     16602     16606     16609     16610     16602     16606     16609     16611
     16602     16606     16609     16616     16603     16602     16606     16607
     16603     16602     16606     16608     16603     16602     16606     16609
     16604     16602     16606     16607     16604     16602     16606     16608
     16604     16602     16606     16609     16605     16602     16606     16607
     16605     16602     16606     16608     16605     16602     16606     16609
     16606     16609     16616     16612     16607     16606     16609     16610
     16607     16606     16609     16611     16607     16606     16609     16616
     16608     16606     16609     16610     16608     16606     16609     16611
     16608     16606     16609     16616     16609     16616     16612     16613
     16609     16616     16612     16614     16609     16616     16612     16615
     16610     16609     16616     16612     16611     16609     16616     16612
     16612     16615     16617     16618     16612     16615     16617     16619
     16612     16615     16617     16620     16613     16612     16615     16617
     16614     16612     16615     16617     16615     16617     16620     16621
     16615     16617     16620     16622     16615     16617     16620     16628
     16616     16612     16615     16617     16617     16620     16622     16623
     16617     16620     16628     16629     16617     16620     16628     16630
     16617     16620     16628     16631     16618     16617     16620     16621
     16618     16617     16620     16622     16618     16617     16620     16628
     16619     16617     16620     16621     16619     16617     16620     16622
     16619     16617     16620     16628     16620     16622     16623     16624
     16620     16622     16623     16625     16620     16628     16631     16632
     16621     16620     16622     16623     16621     16620     16628     16629
     16621     16620     16628     16630     16621     16620     16628     16631
     16622     16620     16628     16629     16622     16620     16628     16630
     16622     16620     16628     16631     16622     16623     16625     16626
     16622     16623     16625     16627     16622     16623     16625     16637
     16623     16622     16620     16628     16623     16625     16637     16638
     16623     16625     16637     16639     16623     16625     16637     16640
     16624     16623     16625     16626     16624     16623     16625     16627
     16624     16623     16625     16637     16625     16637     16640     16641
     16625     16637     16640     16642     16625     16637     16640     16643
     16626     16625     16637     16638     16626     16625     16637     16639
     16626     16625     16637     16640     16627     16625     16637     16638
     16627     16625     16637     16639     16627     16625     16637     16640
     16628     16631     16632     16633     16628     16631     16632     16634
     16629     16628     16631     16632     16630     16628     16631     16632
     16631     16632     16634     16635     16631     16632     16634     16636
     16631     16632     16634     16681     16632     16634     16681     16682
     16632     16634     16681     16683     16632     16634     16681     16684
     16633     16632     16634     16635     16633     16632     16634     16636
     16633     16632     16634     16681     16634     16681     16684     16685
     16634     16681     16684     16686     16634     16681     16684     16687
     16635     16634     16681     16682     16635     16634     16681     16683
     16635     16634     16681     16684     16636     16634     16681     16682
     16636     16634     16681     16683     16636     16634     16681     16684
     16637     16640     16643     16644     16637     16640     16643     16645
     16637     16640     16643     16646     16638     16637     16640     16641
     16638     16637     16640     16642     16638     16637     16640     16643
     16639     16637     16640     16641     16639     16637     16640     16642
     16639     16637     16640     16643     16640     16643     16646     16647
     16640     16643     16646     16648     16640     16643     16646     16649
     16641     16640     16643     16644     16641     16640     16643     16645
     16641     16640     16643     16646     16642     16640     16643     16644
     16642     16640     16643     16645     16642     16640     16643     16646
     16643     16646     16649     16650     16643     16646     16649     16651
     16643     16646     16649     16652     16644     16643     16646     16647
     16644     16643     16646     16648     16644     16643     16646     16649
     16645     16643     16646     16647     16645     16643     16646     16648
     16645     16643     16646     16649     16646     16649     16652     16653
     16646     16649     16652     16654     16646     16649     16652     16655
     16647     16646     16649     16650     16647     16646     16649     16651
     16647     16646     16649     16652     16648     16646     16649     16650
     16648     16646     16649     16651     16648     16646     16649     16652
     16649     16652     16655     16656     16649     16652     16655     16657
     16649     16652     16655     16660     16650     16649     16652     16653
     16650     16649     16652     16654     16650     16649     16652     16655
     16651     16649     16652     16653     16651     16649     16652     16654
     16651     16649     16652     16655     16652     16655     16657     16658
     16652     16655     16657     16659     16652     16655     16657     16660
     16652     16655     16660     16657     16652     16655     16660     16661
     16652     16655     16660     16662     16653     16652     16655     16656
     16653     16652     16655     16657     16653     16652     16655     16660
     16654     16652     16655     16656     16654     16652     16655     16657
     16654     16652     16655     16660     16655     16657     16660     16661
     16655     16657     16660     16662     16655     16660     16657     16658
     16655     16660     16657     16659     16655     16660     16662     16663
     16655     16660     16662     16664     16655     16660     16662     16665
     16656     16655     16657     16658     16656     16655     16657     16659
     16656     16655     16657     16660     16656     16655     16660     16657
     16656     16655     16660     16661     16656     16655     16660     16662
     16657     16655     16660     16661     16657     16655     16660     16662
     16657     16660     16662     16663     16657     16660     16662     16664
     16657     16660     16662     16665     16658     16657     16655     16660
     16658     16657     16660     16661     16658     16657     16660     16662
     16659     16657     16655     16660     16659     16657     16660     16661
     16659     16657     16660     16662     16660     16662     16665     16666
     16660     16662     16665     16667     16660     16662     16665     16668
     16661     16660     16662     16663     16661     16660     16662     16664
     16661     16660     16662     16665     16662     16665     16668     16669
     16662     16665     16668     16670     16662     16665     16668     16671
     16663     16662     16665     16666     16663     16662     16665     16667
     16663     16662     16665     16668     16664     16662     16665     16666
     16664     16662     16665     16667     16664     16662     16665     16668
     16665     16668     16671     16672     16665     16668     16671     16673
     16665     16668     16671     16674     16666     16665     16668     16669
     16666     16665     16668     16670     16666     16665     16668     16671
     16667     16665     16668     16669     16667     16665     16668     16670
     16667     16665     16668     16671     16668     16671     16674     16675
     16668     16671     16674     16676     16668     16671     16674     16677
     16669     16668     16671     16672     16669     16668     16671     16673
     16669     16668     16671     16674     16670     16668     16671     16672
     16670     16668     16671     16673     16670     16668     16671     16674
     16671     16674     16677     16678     16671     16674     16677     16679
     16671     16674     16677     16680     16672     16671     16674     16675
     16672     16671     16674     16676     16672     16671     16674     16677
     16673     16671     16674     16675     16673     16671     16674     16676
     16673     16671     16674     16677     16675     16674     16677     16678
     16675     16674     16677     16679     16675     16674     16677     16680
     16676     16674     16677     16678     16676     16674     16677     16679
     16676     16674     16677     16680     16681     16684     16687     16688
     16681     16684     16687     16689     16681     16684     16687     16690
     16682     16681     16684     16685     16682     16681     16684     16686
     16682     16681     16684     16687     16683     16681     16684     16685
     16683     16681     16684     16686     16683     16681     16684     16687
     16684     16687     16690     16691     16684     16687     16690     16692
     16684     16687     16690     16693     16685     16684     16687     16688
     16685     16684     16687     16689     16685     16684     16687     16690
     16686     16684     16687     16688     16686     16684     16687     16689
     16686     16684     16687     16690     16687     16690     16693     16694
     16687     16690     16693     16695     16687     16690     16693     16696
     16688     16687     16690     16691     16688     16687     16690     16692
     16688     16687     16690     16693     16689     16687     16690     16691
     16689     16687     16690     16692     16689     16687     16690     16693
     16690     16693     16696     16697     16690     16693     16696     16698
     16690     16693     16696     16699     16691     16690     16693     16694
     16691     16690     16693     16695     16691     16690     16693     16696
     16692     16690     16693     16694     16692     16690     16693     16695
     16692     16690     16693     16696     16693     16696     16699     16700
     16693     16696     16699     16701     16693     16696     16699     16702
     16694     16693     16696     16697     16694     16693     16696     16698
     16694     16693     16696     16699     16695     16693     16696     16697
     16695     16693     16696     16698     16695     16693     16696     16699
     16696     16699     16702     16703     16696     16699     16702     16704
     16696     16699     16702     16705     16697     16696     16699     16700
     16697     16696     16699     16701     16697     16696     16699     16702
     16698     16696     16699     16700     16698     16696     16699     16701
     16698     16696     16699     16702     16699     16702     16705     16706
     16699     16702     16705     16707     16699     16702     16705     16708
     16700     16699     16702     16703     16700     16699     16702     16704
     16700     16699     16702     16705     16701     16699     16702     16703
     16701     16699     16702     16704     16701     16699     16702     16705
     16702     16705     16708     16709     16702     16705     16708     16710
     16702     16705     16708     16711     16703     16702     16705     16706
     16703     16702     16705     16707     16703     16702     16705     16708
     16704     16702     16705     16706     16704     16702     16705     16707
     16704     16702     16705     16708     16705     16708     16711     16712
     16705     16708     16711     16713     16705     16708     16711     16714
     16706     16705     16708     16709     16706     16705     16708     16710
     16706     16705     16708     16711     16707     16705     16708     16709
     16707     16705     16708     16710     16707     16705     16708     16711
     16708     16711     16714     16715     16708     16711     16714     16716
     16708     16711     16714     16717     16709     16708     16711     16712
     16709     16708     16711     16713     16709     16708     16711     16714
     16710     16708     16711     16712     16710     16708     16711     16713
     16710     16708     16711     16714     16711     16714     16717     16718
     16711     16714     16717     16719     16711     16714     16717     16720
     16712     16711     16714     16715     16712     16711     16714     16716
     16712     16711     16714     16717     16713     16711     16714     16715
     16713     16711     16714     16716     16713     16711     16714     16717
     16714     16717     16720     16721     16714     16717     16720     16722
     16714     16717     16720     16723     16715     16714     16717     16718
     16715     16714     16717     16719     16715     16714     16717     16720
     16716     16714     16717     16718     16716     16714     16717     16719
     16716     16714     16717     16720     16718     16717     16720     16721
     16718     16717     16720     16722     16718     16717     16720     16723
     16719     16717     16720     16721     16719     16717     16720     16722
     16719     16717     16720     16723     16724     16729     16731     16732
     16724     16729     16733     16734     16724     16729     16733     16735
     16724     16729     16733     16740     16725     16724     16727     16728
     16725     16724     16729     16730     16725     16724     16729     16731
     16725     16724     16729     16733     16726     16724     16727     16728
     16726     16724     16729     16730     16726     16724     16729     16731
     16726     16724     16729     16733     16727     16724     16729     16730
     16727     16724     16729     16731     16727     16724     16729     16733
     16728     16727     16724     16729     16729     16733     16740     16736
     16730     16729     16731     16732     16730     16729     16733     16734
     16730     16729     16733     16735     16730     16729     16733     16740
     16731     16729     16733     16734     16731     16729     16733     16735
     16731     16729     16733     16740     16732     16731     16729     16733
     16733     16740     16736     16737     16733     16740     16736     16738
     16733     16740     16736     16739     16734     16733     16740     16736
     16735     16733     16740     16736     16736     16739     16741     16742
     16736     16739     16741     16743     16736     16739     16741     16744
     16737     16736     16739     16741     16738     16736     16739     16741
     16739     16741     16744     16745     16739     16741     16744     16746
     16739     16741     16744     16752     16740     16736     16739     16741
     16741     16744     16746     16747     16741     16744     16752     16753
     16741     16744     16752     16754     16741     16744     16752     16755
     16742     16741     16744     16745     16742     16741     16744     16746
     16742     16741     16744     16752     16743     16741     16744     16745
     16743     16741     16744     16746     16743     16741     16744     16752
     16744     16746     16747     16748     16744     16746     16747     16749
     16744     16752     16755     16756     16745     16744     16746     16747
     16745     16744     16752     16753     16745     16744     16752     16754
     16745     16744     16752     16755     16746     16744     16752     16753
     16746     16744     16752     16754     16746     16744     16752     16755
     16746     16747     16749     16750     16746     16747     16749     16751
     16746     16747     16749     16761     16747     16746     16744     16752
     16747     16749     16761     16762     16747     16749     16761     16763
     16747     16749     16761     16764     16748     16747     16749     16750
     16748     16747     16749     16751     16748     16747     16749     16761
     16749     16761     16764     16765     16749     16761     16764     16766
     16749     16761     16764     16767     16750     16749     16761     16762
     16750     16749     16761     16763     16750     16749     16761     16764
     16751     16749     16761     16762     16751     16749     16761     16763
     16751     16749     16761     16764     16752     16755     16756     16757
     16752     16755     16756     16758     16753     16752     16755     16756
     16754     16752     16755     16756     16755     16756     16758     16759
     16755     16756     16758     16760     16755     16756     16758     16805
     16756     16758     16805     16806     16756     16758     16805     16807
     16756     16758     16805     16808     16757     16756     16758     16759
     16757     16756     16758     16760     16757     16756     16758     16805
     16758     16805     16808     16809     16758     16805     16808     16810
     16758     16805     16808     16811     16759     16758     16805     16806
     16759     16758     16805     16807     16759     16758     16805     16808
     16760     16758     16805     16806     16760     16758     16805     16807
     16760     16758     16805     16808     16761     16764     16767     16768
     16761     16764     16767     16769     16761     16764     16767     16770
     16762     16761     16764     16765     16762     16761     16764     16766
     16762     16761     16764     16767     16763     16761     16764     16765
     16763     16761     16764     16766     16763     16761     16764     16767
     16764     16767     16770     16771     16764     16767     16770     16772
     16764     16767     16770     16773     16765     16764     16767     16768
     16765     16764     16767     16769     16765     16764     16767     16770
     16766     16764     16767     16768     16766     16764     16767     16769
     16766     16764     16767     16770     16767     16770     16773     16774
     16767     16770     16773     16775     16767     16770     16773     16776
     16768     16767     16770     16771     16768     16767     16770     16772
     16768     16767     16770     16773     16769     16767     16770     16771
     16769     16767     16770     16772     16769     16767     16770     16773
     16770     16773     16776     16777     16770     16773     16776     16778
     16770     16773     16776     16779     16771     16770     16773     16774
     16771     16770     16773     16775     16771     16770     16773     16776
     16772     16770     16773     16774     16772     16770     16773     16775
     16772     16770     16773     16776     16773     16776     16779     16780
     16773     16776     16779     16781     16773     16776     16779     16784
     16774     16773     16776     16777     16774     16773     16776     16778
     16774     16773     16776     16779     16775     16773     16776     16777
     16775     16773     16776     16778     16775     16773     16776     16779
     16776     16779     16781     16782     16776     16779     16781     16783
     16776     16779     16781     16784     16776     16779     16784     16781
     16776     16779     16784     16785     16776     16779     16784     16786
     16777     16776     16779     16780     16777     16776     16779     16781
     16777     16776     16779     16784     16778     16776     16779     16780
     16778     16776     16779     16781     16778     16776     16779     16784
     16779     16781     16784     16785     16779     16781     16784     16786
     16779     16784     16781     16782     16779     16784     16781     16783
     16779     16784     16786     16787     16779     16784     16786     16788
     16779     16784     16786     16789     16780     16779     16781     16782
     16780     16779     16781     16783     16780     16779     16781     16784
     16780     16779     16784     16781     16780     16779     16784     16785
     16780     16779     16784     16786     16781     16779     16784     16785
     16781     16779     16784     16786     16781     16784     16786     16787
     16781     16784     16786     16788     16781     16784     16786     16789
     16782     16781     16779     16784     16782     16781     16784     16785
     16782     16781     16784     16786     16783     16781     16779     16784
     16783     16781     16784     16785     16783     16781     16784     16786
     16784     16786     16789     16790     16784     16786     16789     16791
     16784     16786     16789     16792     16785     16784     16786     16787
     16785     16784     16786     16788     16785     16784     16786     16789
     16786     16789     16792     16793     16786     16789     16792     16794
     16786     16789     16792     16795     16787     16786     16789     16790
     16787     16786     16789     16791     16787     16786     16789     16792
     16788     16786     16789     16790     16788     16786     16789     16791
     16788     16786     16789     16792     16789     16792     16795     16796
     16789     16792     16795     16797     16789     16792     16795     16798
     16790     16789     16792     16793     16790     16789     16792     16794
     16790     16789     16792     16795     16791     16789     16792     16793
     16791     16789     16792     16794     16791     16789     16792     16795
     16792     16795     16798     16799     16792     16795     16798     16800
     16792     16795     16798     16801     16793     16792     16795     16796
     16793     16792     16795     16797     16793     16792     16795     16798
     16794     16792     16795     16796     16794     16792     16795     16797
     16794     16792     16795     16798     16795     16798     16801     16802
     16795     16798     16801     16803     16795     16798     16801     16804
     16796     16795     16798     16799     16796     16795     16798     16800
     16796     16795     16798     16801     16797     16795     16798     16799
     16797     16795     16798     16800     16797     16795     16798     16801
     16799     16798     16801     16802     16799     16798     16801     16803
     16799     16798     16801     16804     16800     16798     16801     16802
     16800     16798     16801     16803     16800     16798     16801     16804
     16805     16808     16811     16812     16805     16808     16811     16813
     16805     16808     16811     16814     16806     16805     16808     16809
     16806     16805     16808     16810     16806     16805     16808     16811
     16807     16805     16808     16809     16807     16805     16808     16810
     16807     16805     16808     16811     16808     16811     16814     16815
     16808     16811     16814     16816     16808     16811     16814     16817
     16809     16808     16811     16812     16809     16808     16811     16813
     16809     16808     16811     16814     16810     16808     16811     16812
     16810     16808     16811     16813     16810     16808     16811     16814
     16811     16814     16817     16818     16811     16814     16817     16819
     16811     16814     16817     16820     16812     16811     16814     16815
     16812     16811     16814     16816     16812     16811     16814     16817
     16813     16811     16814     16815     16813     16811     16814     16816
     16813     16811     16814     16817     16814     16817     16820     16821
     16814     16817     16820     16822     16814     16817     16820     16823
     16815     16814     16817     16818     16815     16814     16817     16819
     16815     16814     16817     16820     16816     16814     16817     16818
     16816     16814     16817     16819     16816     16814     16817     16820
     16817     16820     16823     16824     16817     16820     16823     16825
     16817     16820     16823     16826     16818     16817     16820     16821
     16818     16817     16820     16822     16818     16817     16820     16823
     16819     16817     16820     16821     16819     16817     16820     16822
     16819     16817     16820     16823     16820     16823     16826     16827
     16820     16823     16826     16828     16820     16823     16826     16829
     16821     16820     16823     16824     16821     16820     16823     16825
     16821     16820     16823     16826     16822     16820     16823     16824
     16822     16820     16823     16825     16822     16820     16823     16826
     16823     16826     16829     16830     16823     16826     16829     16831
     16823     16826     16829     16832     16824     16823     16826     16827
     16824     16823     16826     16828     16824     16823     16826     16829
     16825     16823     16826     16827     16825     16823     16826     16828
     16825     16823     16826     16829     16826     16829     16832     16833
     16826     16829     16832     16834     16826     16829     16832     16835
     16827     16826     16829     16830     16827     16826     16829     16831
     16827     16826     16829     16832     16828     16826     16829     16830
     16828     16826     16829     16831     16828     16826     16829     16832
     16829     16832     16835     16836     16829     16832     16835     16837
     16829     16832     16835     16838     16830     16829     16832     16833
     16830     16829     16832     16834     16830     16829     16832     16835
     16831     16829     16832     16833     16831     16829     16832     16834
     16831     16829     16832     16835     16832     16835     16838     16839
     16832     16835     16838     16840     16832     16835     16838     16841
     16833     16832     16835     16836     16833     16832     16835     16837
     16833     16832     16835     16838     16834     16832     16835     16836
     16834     16832     16835     16837     16834     16832     16835     16838
     16835     16838     16841     16842     16835     16838     16841     16843
     16835     16838     16841     16844     16836     16835     16838     16839
     16836     16835     16838     16840     16836     16835     16838     16841
     16837     16835     16838     16839     16837     16835     16838     16840
     16837     16835     16838     16841     16838     16841     16844     16845
     16838     16841     16844     16846     16838     16841     16844     16847
     16839     16838     16841     16842     16839     16838     16841     16843
     16839     16838     16841     16844     16840     16838     16841     16842
     16840     16838     16841     16843     16840     16838     16841     16844
     16842     16841     16844     16845     16842     16841     16844     16846
     16842     16841     16844     16847     16843     16841     16844     16845
     16843     16841     16844     16846     16843     16841     16844     16847
     16848     16852     16855     16856     16848     16852     16855     16857
     16848     16852     16855     16862     16849     16848     16852     16853
     16849     16848     16852     16854     16849     16848     16852     16855
     16850     16848     16852     16853     16850     16848     16852     16854
     16850     16848     16852     16855     16851     16848     16852     16853
     16851     16848     16852     16854     16851     16848     16852     16855
     16852     16855     16862     16858     16853     16852     16855     16856
     16853     16852     16855     16857     16853     16852     16855     16862
     16854     16852     16855     16856     16854     16852     16855     16857
     16854     16852     16855     16862     16855     16862     16858     16859
     16855     16862     16858     16860     16855     16862     16858     16861
     16856     16855     16862     16858     16857     16855     16862     16858
     16858     16861     16863     16864     16858     16861     16863     16865
     16858     16861     16863     16866     16859     16858     16861     16863
     16860     16858     16861     16863     16861     16863     16866     16867
     16861     16863     16866     16868     16861     16863     16866     16874
     16862     16858     16861     16863     16863     16866     16868     16869
     16863     16866     16874     16875     16863     16866     16874     16876
     16863     16866     16874     16877     16864     16863     16866     16867
     16864     16863     16866     16868     16864     16863     16866     16874
     16865     16863     16866     16867     16865     16863     16866     16868
     16865     16863     16866     16874     16866     16868     16869     16870
     16866     16868     16869     16871     16866     16874     16877     16878
     16867     16866     16868     16869     16867     16866     16874     16875
     16867     16866     16874     16876     16867     16866     16874     16877
     16868     16866     16874     16875     16868     16866     16874     16876
     16868     16866     16874     16877     16868     16869     16871     16872
     16868     16869     16871     16873     16868     16869     16871     16883
     16869     16868     16866     16874     16869     16871     16883     16884
     16869     16871     16883     16885     16869     16871     16883     16886
     16870     16869     16871     16872     16870     16869     16871     16873
     16870     16869     16871     16883     16871     16883     16886     16887
     16871     16883     16886     16888     16871     16883     16886     16889
     16872     16871     16883     16884     16872     16871     16883     16885
     16872     16871     16883     16886     16873     16871     16883     16884
     16873     16871     16883     16885     16873     16871     16883     16886
     16874     16877     16878     16879     16874     16877     16878     16880
     16875     16874     16877     16878     16876     16874     16877     16878
     16877     16878     16880     16881     16877     16878     16880     16882
     16877     16878     16880     16927     16878     16880     16927     16928
     16878     16880     16927     16929     16878     16880     16927     16930
     16879     16878     16880     16881     16879     16878     16880     16882
     16879     16878     16880     16927     16880     16927     16930     16931
     16880     16927     16930     16932     16880     16927     16930     16933
     16881     16880     16927     16928     16881     16880     16927     16929
     16881     16880     16927     16930     16882     16880     16927     16928
     16882     16880     16927     16929     16882     16880     16927     16930
     16883     16886     16889     16890     16883     16886     16889     16891
     16883     16886     16889     16892     16884     16883     16886     16887
     16884     16883     16886     16888     16884     16883     16886     16889
     16885     16883     16886     16887     16885     16883     16886     16888
     16885     16883     16886     16889     16886     16889     16892     16893
     16886     16889     16892     16894     16886     16889     16892     16895
     16887     16886     16889     16890     16887     16886     16889     16891
     16887     16886     16889     16892     16888     16886     16889     16890
     16888     16886     16889     16891     16888     16886     16889     16892
     16889     16892     16895     16896     16889     16892     16895     16897
     16889     16892     16895     16898     16890     16889     16892     16893
     16890     16889     16892     16894     16890     16889     16892     16895
     16891     16889     16892     16893     16891     16889     16892     16894
     16891     16889     16892     16895     16892     16895     16898     16899
     16892     16895     16898     16900     16892     16895     16898     16901
     16893     16892     16895     16896     16893     16892     16895     16897
     16893     16892     16895     16898     16894     16892     16895     16896
     16894     16892     16895     16897     16894     16892     16895     16898
     16895     16898     16901     16902     16895     16898     16901     16903
     16895     16898     16901     16906     16896     16895     16898     16899
     16896     16895     16898     16900     16896     16895     16898     16901
     16897     16895     16898     16899     16897     16895     16898     16900
     16897     16895     16898     16901     16898     16901     16903     16904
     16898     16901     16903     16905     16898     16901     16903     16906
     16898     16901     16906     16903     16898     16901     16906     16907
     16898     16901     16906     16908     16899     16898     16901     16902
     16899     16898     16901     16903     16899     16898     16901     16906
     16900     16898     16901     16902     16900     16898     16901     16903
     16900     16898     16901     16906     16901     16903     16906     16907
     16901     16903     16906     16908     16901     16906     16903     16904
     16901     16906     16903     16905     16901     16906     16908     16909
     16901     16906     16908     16910     16901     16906     16908     16911
     16902     16901     16903     16904     16902     16901     16903     16905
     16902     16901     16903     16906     16902     16901     16906     16903
     16902     16901     16906     16907     16902     16901     16906     16908
     16903     16901     16906     16907     16903     16901     16906     16908
     16903     16906     16908     16909     16903     16906     16908     16910
     16903     16906     16908     16911     16904     16903     16901     16906
     16904     16903     16906     16907     16904     16903     16906     16908
     16905     16903     16901     16906     16905     16903     16906     16907
     16905     16903     16906     16908     16906     16908     16911     16912
     16906     16908     16911     16913     16906     16908     16911     16914
     16907     16906     16908     16909     16907     16906     16908     16910
     16907     16906     16908     16911     16908     16911     16914     16915
     16908     16911     16914     16916     16908     16911     16914     16917
     16909     16908     16911     16912     16909     16908     16911     16913
     16909     16908     16911     16914     16910     16908     16911     16912
     16910     16908     16911     16913     16910     16908     16911     16914
     16911     16914     16917     16918     16911     16914     16917     16919
     16911     16914     16917     16920     16912     16911     16914     16915
     16912     16911     16914     16916     16912     16911     16914     16917
     16913     16911     16914     16915     16913     16911     16914     16916
     16913     16911     16914     16917     16914     16917     16920     16921
     16914     16917     16920     16922     16914     16917     16920     16923
     16915     16914     16917     16918     16915     16914     16917     16919
     16915     16914     16917     16920     16916     16914     16917     16918
     16916     16914     16917     16919     16916     16914     16917     16920
     16917     16920     16923     16924     16917     16920     16923     16925
     16917     16920     16923     16926     16918     16917     16920     16921
     16918     16917     16920     16922     16918     16917     16920     16923
     16919     16917     16920     16921     16919     16917     16920     16922
     16919     16917     16920     16923     16921     16920     16923     16924
     16921     16920     16923     16925     16921     16920     16923     16926
     16922     16920     16923     16924     16922     16920     16923     16925
     16922     16920     16923     16926     16927     16930     16933     16934
     16927     16930     16933     16935     16927     16930     16933     16936
     16928     16927     16930     16931     16928     16927     16930     16932
     16928     16927     16930     16933     16929     16927     16930     16931
     16929     16927     16930     16932     16929     16927     16930     16933
     16930     16933     16936     16937     16930     16933     16936     16938
     16930     16933     16936     16939     16931     16930     16933     16934
     16931     16930     16933     16935     16931     16930     16933     16936
     16932     16930     16933     16934     16932     16930     16933     16935
     16932     16930     16933     16936     16933     16936     16939     16940
     16933     16936     16939     16941     16933     16936     16939     16942
     16934     16933     16936     16937     16934     16933     16936     16938
     16934     16933     16936     16939     16935     16933     16936     16937
     16935     16933     16936     16938     16935     16933     16936     16939
     16936     16939     16942     16943     16936     16939     16942     16944
     16936     16939     16942     16945     16937     16936     16939     16940
     16937     16936     16939     16941     16937     16936     16939     16942
     16938     16936     16939     16940     16938     16936     16939     16941
     16938     16936     16939     16942     16939     16942     16945     16946
     16939     16942     16945     16947     16939     16942     16945     16948
     16940     16939     16942     16943     16940     16939     16942     16944
     16940     16939     16942     16945     16941     16939     16942     16943
     16941     16939     16942     16944     16941     16939     16942     16945
     16942     16945     16948     16949     16942     16945     16948     16950
     16942     16945     16948     16951     16943     16942     16945     16946
     16943     16942     16945     16947     16943     16942     16945     16948
     16944     16942     16945     16946     16944     16942     16945     16947
     16944     16942     16945     16948     16945     16948     16951     16952
     16945     16948     16951     16953     16945     16948     16951     16954
     16946     16945     16948     16949     16946     16945     16948     16950
     16946     16945     16948     16951     16947     16945     16948     16949
     16947     16945     16948     16950     16947     16945     16948     16951
     16948     16951     16954     16955     16948     16951     16954     16956
     16948     16951     16954     16957     16949     16948     16951     16952
     16949     16948     16951     16953     16949     16948     16951     16954
     16950     16948     16951     16952     16950     16948     16951     16953
     16950     16948     16951     16954     16951     16954     16957     16958
     16951     16954     16957     16959     16951     16954     16957     16960
     16952     16951     16954     16955     16952     16951     16954     16956
     16952     16951     16954     16957     16953     16951     16954     16955
     16953     16951     16954     16956     16953     16951     16954     16957
     16954     16957     16960     16961     16954     16957     16960     16962
     16954     16957     16960     16963     16955     16954     16957     16958
     16955     16954     16957     16959     16955     16954     16957     16960
     16956     16954     16957     16958     16956     16954     16957     16959
     16956     16954     16957     16960     16957     16960     16963     16964
     16957     16960     16963     16965     16957     16960     16963     16966
     16958     16957     16960     16961     16958     16957     16960     16962
     16958     16957     16960     16963     16959     16957     16960     16961
     16959     16957     16960     16962     16959     16957     16960     16963
     16960     16963     16966     16967     16960     16963     16966     16968
     16960     16963     16966     16969     16961     16960     16963     16964
     16961     16960     16963     16965     16961     16960     16963     16966
     16962     16960     16963     16964     16962     16960     16963     16965
     16962     16960     16963     16966     16964     16963     16966     16967
     16964     16963     16966     16968     16964     16963     16966     16969
     16965     16963     16966     16967     16965     16963     16966     16968
     16965     16963     16966     16969     16970     16974     16977     16978
     16970     16974     16977     16979     16970     16974     16977     16984
     16971     16970     16974     16975     16971     16970     16974     16976
     16971     16970     16974     16977     16972     16970     16974     16975
     16972     16970     16974     16976     16972     16970     16974     16977
     16973     16970     16974     16975     16973     16970     16974     16976
     16973     16970     16974     16977     16974     16977     16984     16980
     16975     16974     16977     16978     16975     16974     16977     16979
     16975     16974     16977     16984     16976     16974     16977     16978
     16976     16974     16977     16979     16976     16974     16977     16984
     16977     16984     16980     16981     16977     16984     16980     16982
     16977     16984     16980     16983     16978     16977     16984     16980
     16979     16977     16984     16980     16980     16983     16985     16986
     16980     16983     16985     16987     16980     16983     16985     16988
     16981     16980     16983     16985     16982     16980     16983     16985
     16983     16985     16988     16989     16983     16985     16988     16990
     16983     16985     16988     16996     16984     16980     16983     16985
     16985     16988     16990     16991     16985     16988     16996     16997
     16985     16988     16996     16998     16985     16988     16996     16999
     16986     16985     16988     16989     16986     16985     16988     16990
     16986     16985     16988     16996     16987     16985     16988     16989
     16987     16985     16988     16990     16987     16985     16988     16996
     16988     16990     16991     16992     16988     16990     16991     16993
     16988     16996     16999     17000     16989     16988     16990     16991
     16989     16988     16996     16997     16989     16988     16996     16998
     16989     16988     16996     16999     16990     16988     16996     16997
     16990     16988     16996     16998     16990     16988     16996     16999
     16990     16991     16993     16994     16990     16991     16993     16995
     16990     16991     16993     17005     16991     16990     16988     16996
     16991     16993     17005     17006     16991     16993     17005     17007
     16991     16993     17005     17008     16992     16991     16993     16994
     16992     16991     16993     16995     16992     16991     16993     17005
     16993     17005     17008     17009     16993     17005     17008     17010
     16993     17005     17008     17011     16994     16993     17005     17006
     16994     16993     17005     17007     16994     16993     17005     17008
     16995     16993     17005     17006     16995     16993     17005     17007
     16995     16993     17005     17008     16996     16999     17000     17001
     16996     16999     17000     17002     16997     16996     16999     17000
     16998     16996     16999     17000     16999     17000     17002     17003
     16999     17000     17002     17004     16999     17000     17002     17046
     17000     17002     17046     17047     17000     17002     17046     17048
     17000     17002     17046     17049     17001     17000     17002     17003
     17001     17000     17002     17004     17001     17000     17002     17046
     17002     17046     17049     17050     17002     17046     17049     17051
     17002     17046     17049     17052     17003     17002     17046     17047
     17003     17002     17046     17048     17003     17002     17046     17049
     17004     17002     17046     17047     17004     17002     17046     17048
     17004     17002     17046     17049     17005     17008     17011     17012
     17005     17008     17011     17013     17005     17008     17011     17014
     17006     17005     17008     17009     17006     17005     17008     17010
     17006     17005     17008     17011     17007     17005     17008     17009
     17007     17005     17008     17010     17007     17005     17008     17011
     17008     17011     17014     17015     17008     17011     17014     17016
     17008     17011     17014     17017     17009     17008     17011     17012
     17009     17008     17011     17013     17009     17008     17011     17014
     17010     17008     17011     17012     17010     17008     17011     17013
     17010     17008     17011     17014     17011     17014     17017     17018
     17011     17014     17017     17019     17011     17014     17017     17020
     17012     17011     17014     17015     17012     17011     17014     17016
     17012     17011     17014     17017     17013     17011     17014     17015
     17013     17011     17014     17016     17013     17011     17014     17017
     17014     17017     17020     17021     17014     17017     17020     17022
     17014     17017     17020     17023     17015     17014     17017     17018
     17015     17014     17017     17019     17015     17014     17017     17020
     17016     17014     17017     17018     17016     17014     17017     17019
     17016     17014     17017     17020     17017     17020     17023     17024
     17017     17020     17023     17025     17018     17017     17020     17021
     17018     17017     17020     17022     17018     17017     17020     17023
     17019     17017     17020     17021     17019     17017     17020     17022
     17019     17017     17020     17023     17020     17023     17025     17026
     17020     17023     17025     17027     17021     17020     17023     17024
     17021     17020     17023     17025     17022     17020     17023     17024
     17022     17020     17023     17025     17023     17025     17027     17028
     17023     17025     17027     17029     17023     17025     17027     17030
     17024     17023     17025     17026     17024     17023     17025     17027
     17025     17027     17030     17031     17025     17027     17030     17032
     17025     17027     17030     17033     17026     17025     17027     17028
     17026     17025     17027     17029     17026     17025     17027     17030
     17027     17030     17033     17034     17027     17030     17033     17035
     17027     17030     17033     17036     17028     17027     17030     17031
     17028     17027     17030     17032     17028     17027     17030     17033
     17029     17027     17030     17031     17029     17027     17030     17032
     17029     17027     17030     17033     17030     17033     17036     17037
     17030     17033     17036     17038     17030     17033     17036     17039
     17031     17030     17033     17034     17031     17030     17033     17035
     17031     17030     17033     17036     17032     17030     17033     17034
     17032     17030     17033     17035     17032     17030     17033     17036
     17033     17036     17039     17040     17033     17036     17039     17041
     17033     17036     17039     17042     17034     17033     17036     17037
     17034     17033     17036     17038     17034     17033     17036     17039
     17035     17033     17036     17037     17035     17033     17036     17038
     17035     17033     17036     17039     17036     17039     17042     17043
     17036     17039     17042     17044     17036     17039     17042     17045
     17037     17036     17039     17040     17037     17036     17039     17041
     17037     17036     17039     17042     17038     17036     17039     17040
     17038     17036     17039     17041     17038     17036     17039     17042
     17040     17039     17042     17043     17040     17039     17042     17044
     17040     17039     17042     17045     17041     17039     17042     17043
     17041     17039     17042     17044     17041     17039     17042     17045
     17046     17049     17052     17053     17046     17049     17052     17054
     17046     17049     17052     17055     17047     17046     17049     17050
     17047     17046     17049     17051     17047     17046     17049     17052
     17048     17046     17049     17050     17048     17046     17049     17051
     17048     17046     17049     17052     17049     17052     17055     17056
     17049     17052     17055     17057     17049     17052     17055     17058
     17050     17049     17052     17053     17050     17049     17052     17054
     17050     17049     17052     17055     17051     17049     17052     17053
     17051     17049     17052     17054     17051     17049     17052     17055
     17052     17055     17058     17059     17052     17055     17058     17060
     17052     17055     17058     17061     17053     17052     17055     17056
     17053     17052     17055     17057     17053     17052     17055     17058
     17054     17052     17055     17056     17054     17052     17055     17057
     17054     17052     17055     17058     17055     17058     17061     17062
     17055     17058     17061     17063     17055     17058     17061     17064
     17056     17055     17058     17059     17056     17055     17058     17060
     17056     17055     17058     17061     17057     17055     17058     17059
     17057     17055     17058     17060     17057     17055     17058     17061
     17058     17061     17064     17065     17058     17061     17064     17066
     17059     17058     17061     17062     17059     17058     17061     17063
     17059     17058     17061     17064     17060     17058     17061     17062
     17060     17058     17061     17063     17060     17058     17061     17064
     17061     17064     17066     17067     17061     17064     17066     17068
     17062     17061     17064     17065     17062     17061     17064     17066
     17063     17061     17064     17065     17063     17061     17064     17066
     17064     17066     17068     17069     17064     17066     17068     17070
     17064     17066     17068     17071     17065     17064     17066     17067
     17065     17064     17066     17068     17066     17068     17071     17072
     17066     17068     17071     17073     17066     17068     17071     17074
     17067     17066     17068     17069     17067     17066     17068     17070
     17067     17066     17068     17071     17068     17071     17074     17075
     17068     17071     17074     17076     17068     17071     17074     17077
     17069     17068     17071     17072     17069     17068     17071     17073
     17069     17068     17071     17074     17070     17068     17071     17072
     17070     17068     17071     17073     17070     17068     17071     17074
     17071     17074     17077     17078     17071     17074     17077     17079
     17071     17074     17077     17080     17072     17071     17074     17075
     17072     17071     17074     17076     17072     17071     17074     17077
     17073     17071     17074     17075     17073     17071     17074     17076
     17073     17071     17074     17077     17074     17077     17080     17081
     17074     17077     17080     17082     17074     17077     17080     17083
     17075     17074     17077     17078     17075     17074     17077     17079
     17075     17074     17077     17080     17076     17074     17077     17078
     17076     17074     17077     17079     17076     17074     17077     17080
     17077     17080     17083     17084     17077     17080     17083     17085
     17077     17080     17083     17086     17078     17077     17080     17081
     17078     17077     17080     17082     17078     17077     17080     17083
     17079     17077     17080     17081     17079     17077     17080     17082
     17079     17077     17080     17083     17080     17083     17086     17087
     17080     17083     17086     17088     17080     17083     17086     17089
     17081     17080     17083     17084     17081     17080     17083     17085
     17081     17080     17083     17086     17082     17080     17083     17084
     17082     17080     17083     17085     17082     17080     17083     17086
     17083     17086     17089     17090     17083     17086     17089     17091
     17083     17086     17089     17092     17084     17083     17086     17087
     17084     17083     17086     17088     17084     17083     17086     17089
     17085     17083     17086     17087     17085     17083     17086     17088
     17085     17083     17086     17089     17087     17086     17089     17090
     17087     17086     17089     17091     17087     17086     17089     17092
     17088     17086     17089     17090     17088     17086     17089     17091
     17088     17086     17089     17092     17093     17098     17100     17101
     17093     17098     17102     17103     17093     17098     17102     17104
     17093     17098     17102     17109     17094     17093     17096     17097
     17094     17093     17098     17099     17094     17093     17098     17100
     17094     17093     17098     17102     17095     17093     17096     17097
     17095     17093     17098     17099     17095     17093     17098     17100
     17095     17093     17098     17102     17096     17093     17098     17099
     17096     17093     17098     17100     17096     17093     17098     17102
     17097     17096     17093     17098     17098     17102     17109     17105
     17099     17098     17100     17101     17099     17098     17102     17103
     17099     17098     17102     17104     17099     17098     17102     17109
     17100     17098     17102     17103     17100     17098     17102     17104
     17100     17098     17102     17109     17101     17100     17098     17102
     17102     17109     17105     17106     17102     17109     17105     17107
     17102     17109     17105     17108     17103     17102     17109     17105
     17104     17102     17109     17105     17105     17108     17110     17111
     17105     17108     17110     17112     17105     17108     17110     17113
     17106     17105     17108     17110     17107     17105     17108     17110
     17108     17110     17113     17114     17108     17110     17113     17115
     17108     17110     17113     17121     17109     17105     17108     17110
     17110     17113     17115     17116     17110     17113     17121     17122
     17110     17113     17121     17123     17110     17113     17121     17124
     17111     17110     17113     17114     17111     17110     17113     17115
     17111     17110     17113     17121     17112     17110     17113     17114
     17112     17110     17113     17115     17112     17110     17113     17121
     17113     17115     17116     17117     17113     17115     17116     17118
     17113     17121     17124     17125     17114     17113     17115     17116
     17114     17113     17121     17122     17114     17113     17121     17123
     17114     17113     17121     17124     17115     17113     17121     17122
     17115     17113     17121     17123     17115     17113     17121     17124
     17115     17116     17118     17119     17115     17116     17118     17120
     17115     17116     17118     17130     17116     17115     17113     17121
     17116     17118     17130     17131     17116     17118     17130     17132
     17116     17118     17130     17133     17117     17116     17118     17119
     17117     17116     17118     17120     17117     17116     17118     17130
     17118     17130     17133     17134     17118     17130     17133     17135
     17118     17130     17133     17136     17119     17118     17130     17131
     17119     17118     17130     17132     17119     17118     17130     17133
     17120     17118     17130     17131     17120     17118     17130     17132
     17120     17118     17130     17133     17121     17124     17125     17126
     17121     17124     17125     17127     17122     17121     17124     17125
     17123     17121     17124     17125     17124     17125     17127     17128
     17124     17125     17127     17129     17124     17125     17127     17171
     17125     17127     17171     17172     17125     17127     17171     17173
     17125     17127     17171     17174     17126     17125     17127     17128
     17126     17125     17127     17129     17126     17125     17127     17171
     17127     17171     17174     17175     17127     17171     17174     17176
     17127     17171     17174     17177     17128     17127     17171     17172
     17128     17127     17171     17173     17128     17127     17171     17174
     17129     17127     17171     17172     17129     17127     17171     17173
     17129     17127     17171     17174     17130     17133     17136     17137
     17130     17133     17136     17138     17130     17133     17136     17139
     17131     17130     17133     17134     17131     17130     17133     17135
     17131     17130     17133     17136     17132     17130     17133     17134
     17132     17130     17133     17135     17132     17130     17133     17136
     17133     17136     17139     17140     17133     17136     17139     17141
     17133     17136     17139     17142     17134     17133     17136     17137
     17134     17133     17136     17138     17134     17133     17136     17139
     17135     17133     17136     17137     17135     17133     17136     17138
     17135     17133     17136     17139     17136     17139     17142     17143
     17136     17139     17142     17144     17136     17139     17142     17145
     17137     17136     17139     17140     17137     17136     17139     17141
     17137     17136     17139     17142     17138     17136     17139     17140
     17138     17136     17139     17141     17138     17136     17139     17142
     17139     17142     17145     17146     17139     17142     17145     17147
     17139     17142     17145     17148     17140     17139     17142     17143
     17140     17139     17142     17144     17140     17139     17142     17145
     17141     17139     17142     17143     17141     17139     17142     17144
     17141     17139     17142     17145     17142     17145     17148     17149
     17142     17145     17148     17150     17143     17142     17145     17146
     17143     17142     17145     17147     17143     17142     17145     17148
     17144     17142     17145     17146     17144     17142     17145     17147
     17144     17142     17145     17148     17145     17148     17150     17151
     17145     17148     17150     17152     17146     17145     17148     17149
     17146     17145     17148     17150     17147     17145     17148     17149
     17147     17145     17148     17150     17148     17150     17152     17153
     17148     17150     17152     17154     17148     17150     17152     17155
     17149     17148     17150     17151     17149     17148     17150     17152
     17150     17152     17155     17156     17150     17152     17155     17157
     17150     17152     17155     17158     17151     17150     17152     17153
     17151     17150     17152     17154     17151     17150     17152     17155
     17152     17155     17158     17159     17152     17155     17158     17160
     17152     17155     17158     17161     17153     17152     17155     17156
     17153     17152     17155     17157     17153     17152     17155     17158
     17154     17152     17155     17156     17154     17152     17155     17157
     17154     17152     17155     17158     17155     17158     17161     17162
     17155     17158     17161     17163     17155     17158     17161     17164
     17156     17155     17158     17159     17156     17155     17158     17160
     17156     17155     17158     17161     17157     17155     17158     17159
     17157     17155     17158     17160     17157     17155     17158     17161
     17158     17161     17164     17165     17158     17161     17164     17166
     17158     17161     17164     17167     17159     17158     17161     17162
     17159     17158     17161     17163     17159     17158     17161     17164
     17160     17158     17161     17162     17160     17158     17161     17163
     17160     17158     17161     17164     17161     17164     17167     17168
     17161     17164     17167     17169     17161     17164     17167     17170
     17162     17161     17164     17165     17162     17161     17164     17166
     17162     17161     17164     17167     17163     17161     17164     17165
     17163     17161     17164     17166     17163     17161     17164     17167
     17165     17164     17167     17168     17165     17164     17167     17169
     17165     17164     17167     17170     17166     17164     17167     17168
     17166     17164     17167     17169     17166     17164     17167     17170
     17171     17174     17177     17178     17171     17174     17177     17179
     17171     17174     17177     17180     17172     17171     17174     17175
     17172     17171     17174     17176     17172     17171     17174     17177
     17173     17171     17174     17175     17173     17171     17174     17176
     17173     17171     17174     17177     17174     17177     17180     17181
     17174     17177     17180     17182     17174     17177     17180     17183
     17175     17174     17177     17178     17175     17174     17177     17179
     17175     17174     17177     17180     17176     17174     17177     17178
     17176     17174     17177     17179     17176     17174     17177     17180
     17177     17180     17183     17184     17177     17180     17183     17185
     17177     17180     17183     17186     17178     17177     17180     17181
     17178     17177     17180     17182     17178     17177     17180     17183
     17179     17177     17180     17181     17179     17177     17180     17182
     17179     17177     17180     17183     17180     17183     17186     17187
     17180     17183     17186     17188     17180     17183     17186     17189
     17181     17180     17183     17184     17181     17180     17183     17185
     17181     17180     17183     17186     17182     17180     17183     17184
     17182     17180     17183     17185     17182     17180     17183     17186
     17183     17186     17189     17190     17183     17186     17189     17191
     17183     17186     17189     17192     17184     17183     17186     17187
     17184     17183     17186     17188     17184     17183     17186     17189
     17185     17183     17186     17187     17185     17183     17186     17188
     17185     17183     17186     17189     17186     17189     17192     17193
     17186     17189     17192     17194     17186     17189     17192     17195
     17187     17186     17189     17190     17187     17186     17189     17191
     17187     17186     17189     17192     17188     17186     17189     17190
     17188     17186     17189     17191     17188     17186     17189     17192
     17189     17192     17195     17196     17189     17192     17195     17197
     17189     17192     17195     17198     17190     17189     17192     17193
     17190     17189     17192     17194     17190     17189     17192     17195
     17191     17189     17192     17193     17191     17189     17192     17194
     17191     17189     17192     17195     17192     17195     17198     17199
     17192     17195     17198     17200     17192     17195     17198     17201
     17193     17192     17195     17196     17193     17192     17195     17197
     17193     17192     17195     17198     17194     17192     17195     17196
     17194     17192     17195     17197     17194     17192     17195     17198
     17195     17198     17201     17202     17195     17198     17201     17203
     17195     17198     17201     17204     17196     17195     17198     17199
     17196     17195     17198     17200     17196     17195     17198     17201
     17197     17195     17198     17199     17197     17195     17198     17200
     17197     17195     17198     17201     17198     17201     17204     17205
     17198     17201     17204     17206     17198     17201     17204     17207
     17199     17198     17201     17202     17199     17198     17201     17203
     17199     17198     17201     17204     17200     17198     17201     17202
     17200     17198     17201     17203     17200     17198     17201     17204
     17201     17204     17207     17208     17201     17204     17207     17209
     17201     17204     17207     17210     17202     17201     17204     17205
     17202     17201     17204     17206     17202     17201     17204     17207
     17203     17201     17204     17205     17203     17201     17204     17206
     17203     17201     17204     17207     17204     17207     17210     17211
     17204     17207     17210     17212     17204     17207     17210     17213
     17205     17204     17207     17208     17205     17204     17207     17209
     17205     17204     17207     17210     17206     17204     17207     17208
     17206     17204     17207     17209     17206     17204     17207     17210
     17208     17207     17210     17211     17208     17207     17210     17212
     17208     17207     17210     17213     17209     17207     17210     17211
     17209     17207     17210     17212     17209     17207     17210     17213
     17214     17218     17221     17222     17214     17218     17221     17223
     17214     17218     17221     17228     17215     17214     17218     17219
     17215     17214     17218     17220     17215     17214     17218     17221
     17216     17214     17218     17219     17216     17214     17218     17220
     17216     17214     17218     17221     17217     17214     17218     17219
     17217     17214     17218     17220     17217     17214     17218     17221
     17218     17221     17228     17224     17219     17218     17221     17222
     17219     17218     17221     17223     17219     17218     17221     17228
     17220     17218     17221     17222     17220     17218     17221     17223
     17220     17218     17221     17228     17221     17228     17224     17225
     17221     17228     17224     17226     17221     17228     17224     17227
     17222     17221     17228     17224     17223     17221     17228     17224
     17224     17227     17229     17230     17224     17227     17229     17231
     17224     17227     17229     17232     17225     17224     17227     17229
     17226     17224     17227     17229     17227     17229     17232     17233
     17227     17229     17232     17234     17227     17229     17232     17240
     17228     17224     17227     17229     17229     17232     17234     17235
     17229     17232     17240     17241     17229     17232     17240     17242
     17229     17232     17240     17243     17230     17229     17232     17233
     17230     17229     17232     17234     17230     17229     17232     17240
     17231     17229     17232     17233     17231     17229     17232     17234
     17231     17229     17232     17240     17232     17234     17235     17236
     17232     17234     17235     17237     17232     17240     17243     17244
     17233     17232     17234     17235     17233     17232     17240     17241
     17233     17232     17240     17242     17233     17232     17240     17243
     17234     17232     17240     17241     17234     17232     17240     17242
     17234     17232     17240     17243     17234     17235     17237     17238
     17234     17235     17237     17239     17234     17235     17237     17249
     17235     17234     17232     17240     17235     17237     17249     17250
     17235     17237     17249     17251     17235     17237     17249     17252
     17236     17235     17237     17238     17236     17235     17237     17239
     17236     17235     17237     17249     17237     17249     17252     17253
     17237     17249     17252     17254     17237     17249     17252     17255
     17238     17237     17249     17250     17238     17237     17249     17251
     17238     17237     17249     17252     17239     17237     17249     17250
     17239     17237     17249     17251     17239     17237     17249     17252
     17240     17243     17244     17245     17240     17243     17244     17246
     17241     17240     17243     17244     17242     17240     17243     17244
     17243     17244     17246     17247     17243     17244     17246     17248
     17243     17244     17246     17293     17244     17246     17293     17294
     17244     17246     17293     17295     17244     17246     17293     17296
     17245     17244     17246     17247     17245     17244     17246     17248
     17245     17244     17246     17293     17246     17293     17296     17297
     17246     17293     17296     17298     17246     17293     17296     17299
     17247     17246     17293     17294     17247     17246     17293     17295
     17247     17246     17293     17296     17248     17246     17293     17294
     17248     17246     17293     17295     17248     17246     17293     17296
     17249     17252     17255     17256     17249     17252     17255     17257
     17249     17252     17255     17258     17250     17249     17252     17253
     17250     17249     17252     17254     17250     17249     17252     17255
     17251     17249     17252     17253     17251     17249     17252     17254
     17251     17249     17252     17255     17252     17255     17258     17259
     17252     17255     17258     17260     17252     17255     17258     17261
     17253     17252     17255     17256     17253     17252     17255     17257
     17253     17252     17255     17258     17254     17252     17255     17256
     17254     17252     17255     17257     17254     17252     17255     17258
     17255     17258     17261     17262     17255     17258     17261     17263
     17255     17258     17261     17264     17256     17255     17258     17259
     17256     17255     17258     17260     17256     17255     17258     17261
     17257     17255     17258     17259     17257     17255     17258     17260
     17257     17255     17258     17261     17258     17261     17264     17265
     17258     17261     17264     17266     17258     17261     17264     17267
     17259     17258     17261     17262     17259     17258     17261     17263
     17259     17258     17261     17264     17260     17258     17261     17262
     17260     17258     17261     17263     17260     17258     17261     17264
     17261     17264     17267     17268     17261     17264     17267     17269
     17261     17264     17267     17272     17262     17261     17264     17265
     17262     17261     17264     17266     17262     17261     17264     17267
     17263     17261     17264     17265     17263     17261     17264     17266
     17263     17261     17264     17267     17264     17267     17269     17270
     17264     17267     17269     17271     17264     17267     17269     17272
     17264     17267     17272     17269     17264     17267     17272     17273
     17264     17267     17272     17274     17265     17264     17267     17268
     17265     17264     17267     17269     17265     17264     17267     17272
     17266     17264     17267     17268     17266     17264     17267     17269
     17266     17264     17267     17272     17267     17269     17272     17273
     17267     17269     17272     17274     17267     17272     17269     17270
     17267     17272     17269     17271     17267     17272     17274     17275
     17267     17272     17274     17276     17267     17272     17274     17277
     17268     17267     17269     17270     17268     17267     17269     17271
     17268     17267     17269     17272     17268     17267     17272     17269
     17268     17267     17272     17273     17268     17267     17272     17274
     17269     17267     17272     17273     17269     17267     17272     17274
     17269     17272     17274     17275     17269     17272     17274     17276
     17269     17272     17274     17277     17270     17269     17267     17272
     17270     17269     17272     17273     17270     17269     17272     17274
     17271     17269     17267     17272     17271     17269     17272     17273
     17271     17269     17272     17274     17272     17274     17277     17278
     17272     17274     17277     17279     17272     17274     17277     17280
     17273     17272     17274     17275     17273     17272     17274     17276
     17273     17272     17274     17277     17274     17277     17280     17281
     17274     17277     17280     17282     17274     17277     17280     17283
     17275     17274     17277     17278     17275     17274     17277     17279
     17275     17274     17277     17280     17276     17274     17277     17278
     17276     17274     17277     17279     17276     17274     17277     17280
     17277     17280     17283     17284     17277     17280     17283     17285
     17277     17280     17283     17286     17278     17277     17280     17281
     17278     17277     17280     17282     17278     17277     17280     17283
     17279     17277     17280     17281     17279     17277     17280     17282
     17279     17277     17280     17283     17280     17283     17286     17287
     17280     17283     17286     17288     17280     17283     17286     17289
     17281     17280     17283     17284     17281     17280     17283     17285
     17281     17280     17283     17286     17282     17280     17283     17284
     17282     17280     17283     17285     17282     17280     17283     17286
     17283     17286     17289     17290     17283     17286     17289     17291
     17283     17286     17289     17292     17284     17283     17286     17287
     17284     17283     17286     17288     17284     17283     17286     17289
     17285     17283     17286     17287     17285     17283     17286     17288
     17285     17283     17286     17289     17287     17286     17289     17290
     17287     17286     17289     17291     17287     17286     17289     17292
     17288     17286     17289     17290     17288     17286     17289     17291
     17288     17286     17289     17292     17293     17296     17299     17300
     17293     17296     17299     17301     17293     17296     17299     17302
     17294     17293     17296     17297     17294     17293     17296     17298
     17294     17293     17296     17299     17295     17293     17296     17297
     17295     17293     17296     17298     17295     17293     17296     17299
     17296     17299     17302     17303     17296     17299     17302     17304
     17296     17299     17302     17305     17297     17296     17299     17300
     17297     17296     17299     17301     17297     17296     17299     17302
     17298     17296     17299     17300     17298     17296     17299     17301
     17298     17296     17299     17302     17299     17302     17305     17306
     17299     17302     17305     17307     17299     17302     17305     17308
     17300     17299     17302     17303     17300     17299     17302     17304
     17300     17299     17302     17305     17301     17299     17302     17303
     17301     17299     17302     17304     17301     17299     17302     17305
     17302     17305     17308     17309     17302     17305     17308     17310
     17302     17305     17308     17311     17303     17302     17305     17306
     17303     17302     17305     17307     17303     17302     17305     17308
     17304     17302     17305     17306     17304     17302     17305     17307
     17304     17302     17305     17308     17305     17308     17311     17312
     17305     17308     17311     17313     17305     17308     17311     17314
     17306     17305     17308     17309     17306     17305     17308     17310
     17306     17305     17308     17311     17307     17305     17308     17309
     17307     17305     17308     17310     17307     17305     17308     17311
     17308     17311     17314     17315     17308     17311     17314     17316
     17308     17311     17314     17317     17309     17308     17311     17312
     17309     17308     17311     17313     17309     17308     17311     17314
     17310     17308     17311     17312     17310     17308     17311     17313
     17310     17308     17311     17314     17311     17314     17317     17318
     17311     17314     17317     17319     17311     17314     17317     17320
     17312     17311     17314     17315     17312     17311     17314     17316
     17312     17311     17314     17317     17313     17311     17314     17315
     17313     17311     17314     17316     17313     17311     17314     17317
     17314     17317     17320     17321     17314     17317     17320     17322
     17314     17317     17320     17323     17315     17314     17317     17318
     17315     17314     17317     17319     17315     17314     17317     17320
     17316     17314     17317     17318     17316     17314     17317     17319
     17316     17314     17317     17320     17317     17320     17323     17324
     17317     17320     17323     17325     17317     17320     17323     17326
     17318     17317     17320     17321     17318     17317     17320     17322
     17318     17317     17320     17323     17319     17317     17320     17321
     17319     17317     17320     17322     17319     17317     17320     17323
     17320     17323     17326     17327     17320     17323     17326     17328
     17320     17323     17326     17329     17321     17320     17323     17324
     17321     17320     17323     17325     17321     17320     17323     17326
     17322     17320     17323     17324     17322     17320     17323     17325
     17322     17320     17323     17326     17323     17326     17329     17330
     17323     17326     17329     17331     17323     17326     17329     17332
     17324     17323     17326     17327     17324     17323     17326     17328
     17324     17323     17326     17329     17325     17323     17326     17327
     17325     17323     17326     17328     17325     17323     17326     17329
     17326     17329     17332     17333     17326     17329     17332     17334
     17326     17329     17332     17335     17327     17326     17329     17330
     17327     17326     17329     17331     17327     17326     17329     17332
     17328     17326     17329     17330     17328     17326     17329     17331
     17328     17326     17329     17332     17330     17329     17332     17333
     17330     17329     17332     17334     17330     17329     17332     17335
     17331     17329     17332     17333     17331     17329     17332     17334
     17331     17329     17332     17335     17336     17341     17343     17344
     17336     17341     17345     17346     17336     17341     17345     17347
     17336     17341     17345     17352     17337     17336     17339     17340
     17337     17336     17341     17342     17337     17336     17341     17343
     17337     17336     17341     17345     17338     17336     17339     17340
     17338     17336     17341     17342     17338     17336     17341     17343
     17338     17336     17341     17345     17339     17336     17341     17342
     17339     17336     17341     17343     17339     17336     17341     17345
     17340     17339     17336     17341     17341     17345     17352     17348
     17342     17341     17343     17344     17342     17341     17345     17346
     17342     17341     17345     17347     17342     17341     17345     17352
     17343     17341     17345     17346     17343     17341     17345     17347
     17343     17341     17345     17352     17344     17343     17341     17345
     17345     17352     17348     17349     17345     17352     17348     17350
     17345     17352     17348     17351     17346     17345     17352     17348
     17347     17345     17352     17348     17348     17351     17353     17354
     17348     17351     17353     17355     17348     17351     17353     17356
     17349     17348     17351     17353     17350     17348     17351     17353
     17351     17353     17356     17357     17351     17353     17356     17358
     17351     17353     17356     17364     17352     17348     17351     17353
     17353     17356     17358     17359     17353     17356     17364     17365
     17353     17356     17364     17366     17353     17356     17364     17367
     17354     17353     17356     17357     17354     17353     17356     17358
     17354     17353     17356     17364     17355     17353     17356     17357
     17355     17353     17356     17358     17355     17353     17356     17364
     17356     17358     17359     17360     17356     17358     17359     17361
     17356     17364     17367     17368     17357     17356     17358     17359
     17357     17356     17364     17365     17357     17356     17364     17366
     17357     17356     17364     17367     17358     17356     17364     17365
     17358     17356     17364     17366     17358     17356     17364     17367
     17358     17359     17361     17362     17358     17359     17361     17363
     17358     17359     17361     17373     17359     17358     17356     17364
     17359     17361     17373     17374     17359     17361     17373     17375
     17359     17361     17373     17376     17360     17359     17361     17362
     17360     17359     17361     17363     17360     17359     17361     17373
     17361     17373     17376     17377     17361     17373     17376     17378
     17361     17373     17376     17379     17362     17361     17373     17374
     17362     17361     17373     17375     17362     17361     17373     17376
     17363     17361     17373     17374     17363     17361     17373     17375
     17363     17361     17373     17376     17364     17367     17368     17369
     17364     17367     17368     17370     17365     17364     17367     17368
     17366     17364     17367     17368     17367     17368     17370     17371
     17367     17368     17370     17372     17367     17368     17370     17414
     17368     17370     17414     17415     17368     17370     17414     17416
     17368     17370     17414     17417     17369     17368     17370     17371
     17369     17368     17370     17372     17369     17368     17370     17414
     17370     17414     17417     17418     17370     17414     17417     17419
     17370     17414     17417     17420     17371     17370     17414     17415
     17371     17370     17414     17416     17371     17370     17414     17417
     17372     17370     17414     17415     17372     17370     17414     17416
     17372     17370     17414     17417     17373     17376     17379     17380
     17373     17376     17379     17381     17373     17376     17379     17382
     17374     17373     17376     17377     17374     17373     17376     17378
     17374     17373     17376     17379     17375     17373     17376     17377
     17375     17373     17376     17378     17375     17373     17376     17379
     17376     17379     17382     17383     17376     17379     17382     17384
     17376     17379     17382     17385     17377     17376     17379     17380
     17377     17376     17379     17381     17377     17376     17379     17382
     17378     17376     17379     17380     17378     17376     17379     17381
     17378     17376     17379     17382     17379     17382     17385     17386
     17379     17382     17385     17387     17379     17382     17385     17388
     17380     17379     17382     17383     17380     17379     17382     17384
     17380     17379     17382     17385     17381     17379     17382     17383
     17381     17379     17382     17384     17381     17379     17382     17385
     17382     17385     17388     17389     17382     17385     17388     17390
     17382     17385     17388     17391     17383     17382     17385     17386
     17383     17382     17385     17387     17383     17382     17385     17388
     17384     17382     17385     17386     17384     17382     17385     17387
     17384     17382     17385     17388     17385     17388     17391     17392
     17385     17388     17391     17393     17386     17385     17388     17389
     17386     17385     17388     17390     17386     17385     17388     17391
     17387     17385     17388     17389     17387     17385     17388     17390
     17387     17385     17388     17391     17388     17391     17393     17394
     17388     17391     17393     17395     17389     17388     17391     17392
     17389     17388     17391     17393     17390     17388     17391     17392
     17390     17388     17391     17393     17391     17393     17395     17396
     17391     17393     17395     17397     17391     17393     17395     17398
     17392     17391     17393     17394     17392     17391     17393     17395
     17393     17395     17398     17399     17393     17395     17398     17400
     17393     17395     17398     17401     17394     17393     17395     17396
     17394     17393     17395     17397     17394     17393     17395     17398
     17395     17398     17401     17402     17395     17398     17401     17403
     17395     17398     17401     17404     17396     17395     17398     17399
     17396     17395     17398     17400     17396     17395     17398     17401
     17397     17395     17398     17399     17397     17395     17398     17400
     17397     17395     17398     17401     17398     17401     17404     17405
     17398     17401     17404     17406     17398     17401     17404     17407
     17399     17398     17401     17402     17399     17398     17401     17403
     17399     17398     17401     17404     17400     17398     17401     17402
     17400     17398     17401     17403     17400     17398     17401     17404
     17401     17404     17407     17408     17401     17404     17407     17409
     17401     17404     17407     17410     17402     17401     17404     17405
     17402     17401     17404     17406     17402     17401     17404     17407
     17403     17401     17404     17405     17403     17401     17404     17406
     17403     17401     17404     17407     17404     17407     17410     17411
     17404     17407     17410     17412     17404     17407     17410     17413
     17405     17404     17407     17408     17405     17404     17407     17409
     17405     17404     17407     17410     17406     17404     17407     17408
     17406     17404     17407     17409     17406     17404     17407     17410
     17408     17407     17410     17411     17408     17407     17410     17412
     17408     17407     17410     17413     17409     17407     17410     17411
     17409     17407     17410     17412     17409     17407     17410     17413
     17414     17417     17420     17421     17414     17417     17420     17422
     17414     17417     17420     17423     17415     17414     17417     17418
     17415     17414     17417     17419     17415     17414     17417     17420
     17416     17414     17417     17418     17416     17414     17417     17419
     17416     17414     17417     17420     17417     17420     17423     17424
     17417     17420     17423     17425     17417     17420     17423     17426
     17418     17417     17420     17421     17418     17417     17420     17422
     17418     17417     17420     17423     17419     17417     17420     17421
     17419     17417     17420     17422     17419     17417     17420     17423
     17420     17423     17426     17427     17420     17423     17426     17428
     17420     17423     17426     17429     17421     17420     17423     17424
     17421     17420     17423     17425     17421     17420     17423     17426
     17422     17420     17423     17424     17422     17420     17423     17425
     17422     17420     17423     17426     17423     17426     17429     17430
     17423     17426     17429     17431     17423     17426     17429     17432
     17424     17423     17426     17427     17424     17423     17426     17428
     17424     17423     17426     17429     17425     17423     17426     17427
     17425     17423     17426     17428     17425     17423     17426     17429
     17426     17429     17432     17433     17426     17429     17432     17434
     17426     17429     17432     17435     17427     17426     17429     17430
     17427     17426     17429     17431     17427     17426     17429     17432
     17428     17426     17429     17430     17428     17426     17429     17431
     17428     17426     17429     17432     17429     17432     17435     17436
     17429     17432     17435     17437     17429     17432     17435     17438
     17430     17429     17432     17433     17430     17429     17432     17434
     17430     17429     17432     17435     17431     17429     17432     17433
     17431     17429     17432     17434     17431     17429     17432     17435
     17432     17435     17438     17439     17432     17435     17438     17440
     17432     17435     17438     17441     17433     17432     17435     17436
     17433     17432     17435     17437     17433     17432     17435     17438
     17434     17432     17435     17436     17434     17432     17435     17437
     17434     17432     17435     17438     17435     17438     17441     17442
     17435     17438     17441     17443     17435     17438     17441     17444
     17436     17435     17438     17439     17436     17435     17438     17440
     17436     17435     17438     17441     17437     17435     17438     17439
     17437     17435     17438     17440     17437     17435     17438     17441
     17438     17441     17444     17445     17438     17441     17444     17446
     17438     17441     17444     17447     17439     17438     17441     17442
     17439     17438     17441     17443     17439     17438     17441     17444
     17440     17438     17441     17442     17440     17438     17441     17443
     17440     17438     17441     17444     17441     17444     17447     17448
     17441     17444     17447     17449     17441     17444     17447     17450
     17442     17441     17444     17445     17442     17441     17444     17446
     17442     17441     17444     17447     17443     17441     17444     17445
     17443     17441     17444     17446     17443     17441     17444     17447
     17444     17447     17450     17451     17444     17447     17450     17452
     17444     17447     17450     17453     17445     17444     17447     17448
     17445     17444     17447     17449     17445     17444     17447     17450
     17446     17444     17447     17448     17446     17444     17447     17449
     17446     17444     17447     17450     17447     17450     17453     17454
     17447     17450     17453     17455     17447     17450     17453     17456
     17448     17447     17450     17451     17448     17447     17450     17452
     17448     17447     17450     17453     17449     17447     17450     17451
     17449     17447     17450     17452     17449     17447     17450     17453
     17451     17450     17453     17454     17451     17450     17453     17455
     17451     17450     17453     17456     17452     17450     17453     17454
     17452     17450     17453     17455     17452     17450     17453     17456
     17457     17462     17464     17465     17457     17462     17466     17467
     17457     17462     17466     17468     17457     17462     17466     17473
     17458     17457     17460     17461     17458     17457     17462     17463
     17458     17457     17462     17464     17458     17457     17462     17466
     17459     17457     17460     17461     17459     17457     17462     17463
     17459     17457     17462     17464     17459     17457     17462     17466
     17460     17457     17462     17463     17460     17457     17462     17464
     17460     17457     17462     17466     17461     17460     17457     17462
     17462     17466     17473     17469     17463     17462     17464     17465
     17463     17462     17466     17467     17463     17462     17466     17468
     17463     17462     17466     17473     17464     17462     17466     17467
     17464     17462     17466     17468     17464     17462     17466     17473
     17465     17464     17462     17466     17466     17473     17469     17470
     17466     17473     17469     17471     17466     17473     17469     17472
     17467     17466     17473     17469     17468     17466     17473     17469
     17469     17472     17474     17475     17469     17472     17474     17476
     17469     17472     17474     17477     17470     17469     17472     17474
     17471     17469     17472     17474     17472     17474     17477     17478
     17472     17474     17477     17479     17472     17474     17477     17485
     17473     17469     17472     17474     17474     17477     17479     17480
     17474     17477     17485     17486     17474     17477     17485     17487
     17474     17477     17485     17488     17475     17474     17477     17478
     17475     17474     17477     17479     17475     17474     17477     17485
     17476     17474     17477     17478     17476     17474     17477     17479
     17476     17474     17477     17485     17477     17479     17480     17481
     17477     17479     17480     17482     17477     17485     17488     17489
     17478     17477     17479     17480     17478     17477     17485     17486
     17478     17477     17485     17487     17478     17477     17485     17488
     17479     17477     17485     17486     17479     17477     17485     17487
     17479     17477     17485     17488     17479     17480     17482     17483
     17479     17480     17482     17484     17479     17480     17482     17494
     17480     17479     17477     17485     17480     17482     17494     17495
     17480     17482     17494     17496     17480     17482     17494     17497
     17481     17480     17482     17483     17481     17480     17482     17484
     17481     17480     17482     17494     17482     17494     17497     17498
     17482     17494     17497     17499     17482     17494     17497     17500
     17483     17482     17494     17495     17483     17482     17494     17496
     17483     17482     17494     17497     17484     17482     17494     17495
     17484     17482     17494     17496     17484     17482     17494     17497
     17485     17488     17489     17490     17485     17488     17489     17491
     17486     17485     17488     17489     17487     17485     17488     17489
     17488     17489     17491     17492     17488     17489     17491     17493
     17488     17489     17491     17538     17489     17491     17538     17539
     17489     17491     17538     17540     17489     17491     17538     17541
     17490     17489     17491     17492     17490     17489     17491     17493
     17490     17489     17491     17538     17491     17538     17541     17542
     17491     17538     17541     17543     17491     17538     17541     17544
     17492     17491     17538     17539     17492     17491     17538     17540
     17492     17491     17538     17541     17493     17491     17538     17539
     17493     17491     17538     17540     17493     17491     17538     17541
     17494     17497     17500     17501     17494     17497     17500     17502
     17494     17497     17500     17503     17495     17494     17497     17498
     17495     17494     17497     17499     17495     17494     17497     17500
     17496     17494     17497     17498     17496     17494     17497     17499
     17496     17494     17497     17500     17497     17500     17503     17504
     17497     17500     17503     17505     17497     17500     17503     17506
     17498     17497     17500     17501     17498     17497     17500     17502
     17498     17497     17500     17503     17499     17497     17500     17501
     17499     17497     17500     17502     17499     17497     17500     17503
     17500     17503     17506     17507     17500     17503     17506     17508
     17500     17503     17506     17509     17501     17500     17503     17504
     17501     17500     17503     17505     17501     17500     17503     17506
     17502     17500     17503     17504     17502     17500     17503     17505
     17502     17500     17503     17506     17503     17506     17509     17510
     17503     17506     17509     17511     17503     17506     17509     17512
     17504     17503     17506     17507     17504     17503     17506     17508
     17504     17503     17506     17509     17505     17503     17506     17507
     17505     17503     17506     17508     17505     17503     17506     17509
     17506     17509     17512     17513     17506     17509     17512     17514
     17506     17509     17512     17517     17507     17506     17509     17510
     17507     17506     17509     17511     17507     17506     17509     17512
     17508     17506     17509     17510     17508     17506     17509     17511
     17508     17506     17509     17512     17509     17512     17514     17515
     17509     17512     17514     17516     17509     17512     17514     17517
     17509     17512     17517     17514     17509     17512     17517     17518
     17509     17512     17517     17519     17510     17509     17512     17513
     17510     17509     17512     17514     17510     17509     17512     17517
     17511     17509     17512     17513     17511     17509     17512     17514
     17511     17509     17512     17517     17512     17514     17517     17518
     17512     17514     17517     17519     17512     17517     17514     17515
     17512     17517     17514     17516     17512     17517     17519     17520
     17512     17517     17519     17521     17512     17517     17519     17522
     17513     17512     17514     17515     17513     17512     17514     17516
     17513     17512     17514     17517     17513     17512     17517     17514
     17513     17512     17517     17518     17513     17512     17517     17519
     17514     17512     17517     17518     17514     17512     17517     17519
     17514     17517     17519     17520     17514     17517     17519     17521
     17514     17517     17519     17522     17515     17514     17512     17517
     17515     17514     17517     17518     17515     17514     17517     17519
     17516     17514     17512     17517     17516     17514     17517     17518
     17516     17514     17517     17519     17517     17519     17522     17523
     17517     17519     17522     17524     17517     17519     17522     17525
     17518     17517     17519     17520     17518     17517     17519     17521
     17518     17517     17519     17522     17519     17522     17525     17526
     17519     17522     17525     17527     17519     17522     17525     17528
     17520     17519     17522     17523     17520     17519     17522     17524
     17520     17519     17522     17525     17521     17519     17522     17523
     17521     17519     17522     17524     17521     17519     17522     17525
     17522     17525     17528     17529     17522     17525     17528     17530
     17522     17525     17528     17531     17523     17522     17525     17526
     17523     17522     17525     17527     17523     17522     17525     17528
     17524     17522     17525     17526     17524     17522     17525     17527
     17524     17522     17525     17528     17525     17528     17531     17532
     17525     17528     17531     17533     17525     17528     17531     17534
     17526     17525     17528     17529     17526     17525     17528     17530
     17526     17525     17528     17531     17527     17525     17528     17529
     17527     17525     17528     17530     17527     17525     17528     17531
     17528     17531     17534     17535     17528     17531     17534     17536
     17528     17531     17534     17537     17529     17528     17531     17532
     17529     17528     17531     17533     17529     17528     17531     17534
     17530     17528     17531     17532     17530     17528     17531     17533
     17530     17528     17531     17534     17532     17531     17534     17535
     17532     17531     17534     17536     17532     17531     17534     17537
     17533     17531     17534     17535     17533     17531     17534     17536
     17533     17531     17534     17537     17538     17541     17544     17545
     17538     17541     17544     17546     17538     17541     17544     17547
     17539     17538     17541     17542     17539     17538     17541     17543
     17539     17538     17541     17544     17540     17538     17541     17542
     17540     17538     17541     17543     17540     17538     17541     17544
     17541     17544     17547     17548     17541     17544     17547     17549
     17541     17544     17547     17550     17542     17541     17544     17545
     17542     17541     17544     17546     17542     17541     17544     17547
     17543     17541     17544     17545     17543     17541     17544     17546
     17543     17541     17544     17547     17544     17547     17550     17551
     17544     17547     17550     17552     17544     17547     17550     17553
     17545     17544     17547     17548     17545     17544     17547     17549
     17545     17544     17547     17550     17546     17544     17547     17548
     17546     17544     17547     17549     17546     17544     17547     17550
     17547     17550     17553     17554     17547     17550     17553     17555
     17547     17550     17553     17556     17548     17547     17550     17551
     17548     17547     17550     17552     17548     17547     17550     17553
     17549     17547     17550     17551     17549     17547     17550     17552
     17549     17547     17550     17553     17550     17553     17556     17557
     17550     17553     17556     17558     17550     17553     17556     17559
     17551     17550     17553     17554     17551     17550     17553     17555
     17551     17550     17553     17556     17552     17550     17553     17554
     17552     17550     17553     17555     17552     17550     17553     17556
     17553     17556     17559     17560     17553     17556     17559     17561
     17553     17556     17559     17562     17554     17553     17556     17557
     17554     17553     17556     17558     17554     17553     17556     17559
     17555     17553     17556     17557     17555     17553     17556     17558
     17555     17553     17556     17559     17556     17559     17562     17563
     17556     17559     17562     17564     17556     17559     17562     17565
     17557     17556     17559     17560     17557     17556     17559     17561
     17557     17556     17559     17562     17558     17556     17559     17560
     17558     17556     17559     17561     17558     17556     17559     17562
     17559     17562     17565     17566     17559     17562     17565     17567
     17559     17562     17565     17568     17560     17559     17562     17563
     17560     17559     17562     17564     17560     17559     17562     17565
     17561     17559     17562     17563     17561     17559     17562     17564
     17561     17559     17562     17565     17562     17565     17568     17569
     17562     17565     17568     17570     17562     17565     17568     17571
     17563     17562     17565     17566     17563     17562     17565     17567
     17563     17562     17565     17568     17564     17562     17565     17566
     17564     17562     17565     17567     17564     17562     17565     17568
     17565     17568     17571     17572     17565     17568     17571     17573
     17565     17568     17571     17574     17566     17565     17568     17569
     17566     17565     17568     17570     17566     17565     17568     17571
     17567     17565     17568     17569     17567     17565     17568     17570
     17567     17565     17568     17571     17568     17571     17574     17575
     17568     17571     17574     17576     17568     17571     17574     17577
     17569     17568     17571     17572     17569     17568     17571     17573
     17569     17568     17571     17574     17570     17568     17571     17572
     17570     17568     17571     17573     17570     17568     17571     17574
     17571     17574     17577     17578     17571     17574     17577     17579
     17571     17574     17577     17580     17572     17571     17574     17575
     17572     17571     17574     17576     17572     17571     17574     17577
     17573     17571     17574     17575     17573     17571     17574     17576
     17573     17571     17574     17577     17575     17574     17577     17578
     17575     17574     17577     17579     17575     17574     17577     17580
     17576     17574     17577     17578     17576     17574     17577     17579
     17576     17574     17577     17580     17581     17585     17588     17589
     17581     17585     17588     17590     17581     17585     17588     17595
     17582     17581     17585     17586     17582     17581     17585     17587
     17582     17581     17585     17588     17583     17581     17585     17586
     17583     17581     17585     17587     17583     17581     17585     17588
     17584     17581     17585     17586     17584     17581     17585     17587
     17584     17581     17585     17588     17585     17588     17595     17591
     17586     17585     17588     17589     17586     17585     17588     17590
     17586     17585     17588     17595     17587     17585     17588     17589
     17587     17585     17588     17590     17587     17585     17588     17595
     17588     17595     17591     17592     17588     17595     17591     17593
     17588     17595     17591     17594     17589     17588     17595     17591
     17590     17588     17595     17591     17591     17594     17596     17597
     17591     17594     17596     17598     17591     17594     17596     17599
     17592     17591     17594     17596     17593     17591     17594     17596
     17594     17596     17599     17600     17594     17596     17599     17601
     17594     17596     17599     17607     17595     17591     17594     17596
     17596     17599     17601     17602     17596     17599     17607     17608
     17596     17599     17607     17609     17596     17599     17607     17610
     17597     17596     17599     17600     17597     17596     17599     17601
     17597     17596     17599     17607     17598     17596     17599     17600
     17598     17596     17599     17601     17598     17596     17599     17607
     17599     17601     17602     17603     17599     17601     17602     17604
     17599     17607     17610     17611     17600     17599     17601     17602
     17600     17599     17607     17608     17600     17599     17607     17609
     17600     17599     17607     17610     17601     17599     17607     17608
     17601     17599     17607     17609     17601     17599     17607     17610
     17601     17602     17604     17605     17601     17602     17604     17606
     17601     17602     17604     17616     17602     17601     17599     17607
     17602     17604     17616     17617     17602     17604     17616     17618
     17602     17604     17616     17619     17603     17602     17604     17605
     17603     17602     17604     17606     17603     17602     17604     17616
     17604     17616     17619     17620     17604     17616     17619     17621
     17604     17616     17619     17622     17605     17604     17616     17617
     17605     17604     17616     17618     17605     17604     17616     17619
     17606     17604     17616     17617     17606     17604     17616     17618
     17606     17604     17616     17619     17607     17610     17611     17612
     17607     17610     17611     17613     17608     17607     17610     17611
     17609     17607     17610     17611     17610     17611     17613     17614
     17610     17611     17613     17615     17610     17611     17613     17660
     17611     17613     17660     17661     17611     17613     17660     17662
     17611     17613     17660     17663     17612     17611     17613     17614
     17612     17611     17613     17615     17612     17611     17613     17660
     17613     17660     17663     17664     17613     17660     17663     17665
     17613     17660     17663     17666     17614     17613     17660     17661
     17614     17613     17660     17662     17614     17613     17660     17663
     17615     17613     17660     17661     17615     17613     17660     17662
     17615     17613     17660     17663     17616     17619     17622     17623
     17616     17619     17622     17624     17616     17619     17622     17625
     17617     17616     17619     17620     17617     17616     17619     17621
     17617     17616     17619     17622     17618     17616     17619     17620
     17618     17616     17619     17621     17618     17616     17619     17622
     17619     17622     17625     17626     17619     17622     17625     17627
     17619     17622     17625     17628     17620     17619     17622     17623
     17620     17619     17622     17624     17620     17619     17622     17625
     17621     17619     17622     17623     17621     17619     17622     17624
     17621     17619     17622     17625     17622     17625     17628     17629
     17622     17625     17628     17630     17622     17625     17628     17631
     17623     17622     17625     17626     17623     17622     17625     17627
     17623     17622     17625     17628     17624     17622     17625     17626
     17624     17622     17625     17627     17624     17622     17625     17628
     17625     17628     17631     17632     17625     17628     17631     17633
     17625     17628     17631     17634     17626     17625     17628     17629
     17626     17625     17628     17630     17626     17625     17628     17631
     17627     17625     17628     17629     17627     17625     17628     17630
     17627     17625     17628     17631     17628     17631     17634     17635
     17628     17631     17634     17636     17628     17631     17634     17639
     17629     17628     17631     17632     17629     17628     17631     17633
     17629     17628     17631     17634     17630     17628     17631     17632
     17630     17628     17631     17633     17630     17628     17631     17634
     17631     17634     17636     17637     17631     17634     17636     17638
     17631     17634     17636     17639     17631     17634     17639     17636
     17631     17634     17639     17640     17631     17634     17639     17641
     17632     17631     17634     17635     17632     17631     17634     17636
     17632     17631     17634     17639     17633     17631     17634     17635
     17633     17631     17634     17636     17633     17631     17634     17639
     17634     17636     17639     17640     17634     17636     17639     17641
     17634     17639     17636     17637     17634     17639     17636     17638
     17634     17639     17641     17642     17634     17639     17641     17643
     17634     17639     17641     17644     17635     17634     17636     17637
     17635     17634     17636     17638     17635     17634     17636     17639
     17635     17634     17639     17636     17635     17634     17639     17640
     17635     17634     17639     17641     17636     17634     17639     17640
     17636     17634     17639     17641     17636     17639     17641     17642
     17636     17639     17641     17643     17636     17639     17641     17644
     17637     17636     17634     17639     17637     17636     17639     17640
     17637     17636     17639     17641     17638     17636     17634     17639
     17638     17636     17639     17640     17638     17636     17639     17641
     17639     17641     17644     17645     17639     17641     17644     17646
     17639     17641     17644     17647     17640     17639     17641     17642
     17640     17639     17641     17643     17640     17639     17641     17644
     17641     17644     17647     17648     17641     17644     17647     17649
     17641     17644     17647     17650     17642     17641     17644     17645
     17642     17641     17644     17646     17642     17641     17644     17647
     17643     17641     17644     17645     17643     17641     17644     17646
     17643     17641     17644     17647     17644     17647     17650     17651
     17644     17647     17650     17652     17644     17647     17650     17653
     17645     17644     17647     17648     17645     17644     17647     17649
     17645     17644     17647     17650     17646     17644     17647     17648
     17646     17644     17647     17649     17646     17644     17647     17650
     17647     17650     17653     17654     17647     17650     17653     17655
     17647     17650     17653     17656     17648     17647     17650     17651
     17648     17647     17650     17652     17648     17647     17650     17653
     17649     17647     17650     17651     17649     17647     17650     17652
     17649     17647     17650     17653     17650     17653     17656     17657
     17650     17653     17656     17658     17650     17653     17656     17659
     17651     17650     17653     17654     17651     17650     17653     17655
     17651     17650     17653     17656     17652     17650     17653     17654
     17652     17650     17653     17655     17652     17650     17653     17656
     17654     17653     17656     17657     17654     17653     17656     17658
     17654     17653     17656     17659     17655     17653     17656     17657
     17655     17653     17656     17658     17655     17653     17656     17659
     17660     17663     17666     17667     17660     17663     17666     17668
     17660     17663     17666     17669     17661     17660     17663     17664
     17661     17660     17663     17665     17661     17660     17663     17666
     17662     17660     17663     17664     17662     17660     17663     17665
     17662     17660     17663     17666     17663     17666     17669     17670
     17663     17666     17669     17671     17663     17666     17669     17672
     17664     17663     17666     17667     17664     17663     17666     17668
     17664     17663     17666     17669     17665     17663     17666     17667
     17665     17663     17666     17668     17665     17663     17666     17669
     17666     17669     17672     17673     17666     17669     17672     17674
     17666     17669     17672     17675     17667     17666     17669     17670
     17667     17666     17669     17671     17667     17666     17669     17672
     17668     17666     17669     17670     17668     17666     17669     17671
     17668     17666     17669     17672     17669     17672     17675     17676
     17669     17672     17675     17677     17669     17672     17675     17678
     17670     17669     17672     17673     17670     17669     17672     17674
     17670     17669     17672     17675     17671     17669     17672     17673
     17671     17669     17672     17674     17671     17669     17672     17675
     17672     17675     17678     17679     17672     17675     17678     17680
     17672     17675     17678     17681     17673     17672     17675     17676
     17673     17672     17675     17677     17673     17672     17675     17678
     17674     17672     17675     17676     17674     17672     17675     17677
     17674     17672     17675     17678     17675     17678     17681     17682
     17675     17678     17681     17683     17675     17678     17681     17684
     17676     17675     17678     17679     17676     17675     17678     17680
     17676     17675     17678     17681     17677     17675     17678     17679
     17677     17675     17678     17680     17677     17675     17678     17681
     17678     17681     17684     17685     17678     17681     17684     17686
     17678     17681     17684     17687     17679     17678     17681     17682
     17679     17678     17681     17683     17679     17678     17681     17684
     17680     17678     17681     17682     17680     17678     17681     17683
     17680     17678     17681     17684     17681     17684     17687     17688
     17681     17684     17687     17689     17681     17684     17687     17690
     17682     17681     17684     17685     17682     17681     17684     17686
     17682     17681     17684     17687     17683     17681     17684     17685
     17683     17681     17684     17686     17683     17681     17684     17687
     17684     17687     17690     17691     17684     17687     17690     17692
     17684     17687     17690     17693     17685     17684     17687     17688
     17685     17684     17687     17689     17685     17684     17687     17690
     17686     17684     17687     17688     17686     17684     17687     17689
     17686     17684     17687     17690     17687     17690     17693     17694
     17687     17690     17693     17695     17687     17690     17693     17696
     17688     17687     17690     17691     17688     17687     17690     17692
     17688     17687     17690     17693     17689     17687     17690     17691
     17689     17687     17690     17692     17689     17687     17690     17693
     17690     17693     17696     17697     17690     17693     17696     17698
     17690     17693     17696     17699     17691     17690     17693     17694
     17691     17690     17693     17695     17691     17690     17693     17696
     17692     17690     17693     17694     17692     17690     17693     17695
     17692     17690     17693     17696     17694     17693     17696     17697
     17694     17693     17696     17698     17694     17693     17696     17699
     17695     17693     17696     17697     17695     17693     17696     17698
     17695     17693     17696     17699     17700     17704     17707     17708
     17700     17704     17707     17709     17700     17704     17707     17714
     17701     17700     17704     17705     17701     17700     17704     17706
     17701     17700     17704     17707     17702     17700     17704     17705
     17702     17700     17704     17706     17702     17700     17704     17707
     17703     17700     17704     17705     17703     17700     17704     17706
     17703     17700     17704     17707     17704     17707     17714     17710
     17705     17704     17707     17708     17705     17704     17707     17709
     17705     17704     17707     17714     17706     17704     17707     17708
     17706     17704     17707     17709     17706     17704     17707     17714
     17707     17714     17710     17711     17707     17714     17710     17712
     17707     17714     17710     17713     17708     17707     17714     17710
     17709     17707     17714     17710     17710     17713     17715     17716
     17710     17713     17715     17717     17710     17713     17715     17718
     17711     17710     17713     17715     17712     17710     17713     17715
     17713     17715     17718     17719     17713     17715     17718     17720
     17713     17715     17718     17726     17714     17710     17713     17715
     17715     17718     17720     17721     17715     17718     17726     17727
     17715     17718     17726     17728     17715     17718     17726     17729
     17716     17715     17718     17719     17716     17715     17718     17720
     17716     17715     17718     17726     17717     17715     17718     17719
     17717     17715     17718     17720     17717     17715     17718     17726
     17718     17720     17721     17722     17718     17720     17721     17723
     17718     17726     17729     17730     17719     17718     17720     17721
     17719     17718     17726     17727     17719     17718     17726     17728
     17719     17718     17726     17729     17720     17718     17726     17727
     17720     17718     17726     17728     17720     17718     17726     17729
     17720     17721     17723     17724     17720     17721     17723     17725
     17720     17721     17723     17735     17721     17720     17718     17726
     17721     17723     17735     17736     17721     17723     17735     17737
     17721     17723     17735     17738     17722     17721     17723     17724
     17722     17721     17723     17725     17722     17721     17723     17735
     17723     17735     17738     17739     17723     17735     17738     17740
     17723     17735     17738     17741     17724     17723     17735     17736
     17724     17723     17735     17737     17724     17723     17735     17738
     17725     17723     17735     17736     17725     17723     17735     17737
     17725     17723     17735     17738     17726     17729     17730     17731
     17726     17729     17730     17732     17727     17726     17729     17730
     17728     17726     17729     17730     17729     17730     17732     17733
     17729     17730     17732     17734     17729     17730     17732     17776
     17730     17732     17776     17777     17730     17732     17776     17778
     17730     17732     17776     17779     17731     17730     17732     17733
     17731     17730     17732     17734     17731     17730     17732     17776
     17732     17776     17779     17780     17732     17776     17779     17781
     17732     17776     17779     17782     17733     17732     17776     17777
     17733     17732     17776     17778     17733     17732     17776     17779
     17734     17732     17776     17777     17734     17732     17776     17778
     17734     17732     17776     17779     17735     17738     17741     17742
     17735     17738     17741     17743     17735     17738     17741     17744
     17736     17735     17738     17739     17736     17735     17738     17740
     17736     17735     17738     17741     17737     17735     17738     17739
     17737     17735     17738     17740     17737     17735     17738     17741
     17738     17741     17744     17745     17738     17741     17744     17746
     17738     17741     17744     17747     17739     17738     17741     17742
     17739     17738     17741     17743     17739     17738     17741     17744
     17740     17738     17741     17742     17740     17738     17741     17743
     17740     17738     17741     17744     17741     17744     17747     17748
     17741     17744     17747     17749     17741     17744     17747     17750
     17742     17741     17744     17745     17742     17741     17744     17746
     17742     17741     17744     17747     17743     17741     17744     17745
     17743     17741     17744     17746     17743     17741     17744     17747
     17744     17747     17750     17751     17744     17747     17750     17752
     17744     17747     17750     17753     17745     17744     17747     17748
     17745     17744     17747     17749     17745     17744     17747     17750
     17746     17744     17747     17748     17746     17744     17747     17749
     17746     17744     17747     17750     17747     17750     17753     17754
     17747     17750     17753     17755     17748     17747     17750     17751
     17748     17747     17750     17752     17748     17747     17750     17753
     17749     17747     17750     17751     17749     17747     17750     17752
     17749     17747     17750     17753     17750     17753     17755     17756
     17750     17753     17755     17757     17751     17750     17753     17754
     17751     17750     17753     17755     17752     17750     17753     17754
     17752     17750     17753     17755     17753     17755     17757     17758
     17753     17755     17757     17759     17753     17755     17757     17760
     17754     17753     17755     17756     17754     17753     17755     17757
     17755     17757     17760     17761     17755     17757     17760     17762
     17755     17757     17760     17763     17756     17755     17757     17758
     17756     17755     17757     17759     17756     17755     17757     17760
     17757     17760     17763     17764     17757     17760     17763     17765
     17757     17760     17763     17766     17758     17757     17760     17761
     17758     17757     17760     17762     17758     17757     17760     17763
     17759     17757     17760     17761     17759     17757     17760     17762
     17759     17757     17760     17763     17760     17763     17766     17767
     17760     17763     17766     17768     17760     17763     17766     17769
     17761     17760     17763     17764     17761     17760     17763     17765
     17761     17760     17763     17766     17762     17760     17763     17764
     17762     17760     17763     17765     17762     17760     17763     17766
     17763     17766     17769     17770     17763     17766     17769     17771
     17763     17766     17769     17772     17764     17763     17766     17767
     17764     17763     17766     17768     17764     17763     17766     17769
     17765     17763     17766     17767     17765     17763     17766     17768
     17765     17763     17766     17769     17766     17769     17772     17773
     17766     17769     17772     17774     17766     17769     17772     17775
     17767     17766     17769     17770     17767     17766     17769     17771
     17767     17766     17769     17772     17768     17766     17769     17770
     17768     17766     17769     17771     17768     17766     17769     17772
     17770     17769     17772     17773     17770     17769     17772     17774
     17770     17769     17772     17775     17771     17769     17772     17773
     17771     17769     17772     17774     17771     17769     17772     17775
     17776     17779     17782     17783     17776     17779     17782     17784
     17776     17779     17782     17785     17777     17776     17779     17780
     17777     17776     17779     17781     17777     17776     17779     17782
     17778     17776     17779     17780     17778     17776     17779     17781
     17778     17776     17779     17782     17779     17782     17785     17786
     17779     17782     17785     17787     17779     17782     17785     17788
     17780     17779     17782     17783     17780     17779     17782     17784
     17780     17779     17782     17785     17781     17779     17782     17783
     17781     17779     17782     17784     17781     17779     17782     17785
     17782     17785     17788     17789     17782     17785     17788     17790
     17782     17785     17788     17791     17783     17782     17785     17786
     17783     17782     17785     17787     17783     17782     17785     17788
     17784     17782     17785     17786     17784     17782     17785     17787
     17784     17782     17785     17788     17785     17788     17791     17792
     17785     17788     17791     17793     17785     17788     17791     17794
     17786     17785     17788     17789     17786     17785     17788     17790
     17786     17785     17788     17791     17787     17785     17788     17789
     17787     17785     17788     17790     17787     17785     17788     17791
     17788     17791     17794     17795     17788     17791     17794     17796
     17789     17788     17791     17792     17789     17788     17791     17793
     17789     17788     17791     17794     17790     17788     17791     17792
     17790     17788     17791     17793     17790     17788     17791     17794
     17791     17794     17796     17797     17791     17794     17796     17798
     17792     17791     17794     17795     17792     17791     17794     17796
     17793     17791     17794     17795     17793     17791     17794     17796
     17794     17796     17798     17799     17794     17796     17798     17800
     17794     17796     17798     17801     17795     17794     17796     17797
     17795     17794     17796     17798     17796     17798     17801     17802
     17796     17798     17801     17803     17796     17798     17801     17804
     17797     17796     17798     17799     17797     17796     17798     17800
     17797     17796     17798     17801     17798     17801     17804     17805
     17798     17801     17804     17806     17798     17801     17804     17807
     17799     17798     17801     17802     17799     17798     17801     17803
     17799     17798     17801     17804     17800     17798     17801     17802
     17800     17798     17801     17803     17800     17798     17801     17804
     17801     17804     17807     17808     17801     17804     17807     17809
     17801     17804     17807     17810     17802     17801     17804     17805
     17802     17801     17804     17806     17802     17801     17804     17807
     17803     17801     17804     17805     17803     17801     17804     17806
     17803     17801     17804     17807     17804     17807     17810     17811
     17804     17807     17810     17812     17804     17807     17810     17813
     17805     17804     17807     17808     17805     17804     17807     17809
     17805     17804     17807     17810     17806     17804     17807     17808
     17806     17804     17807     17809     17806     17804     17807     17810
     17807     17810     17813     17814     17807     17810     17813     17815
     17807     17810     17813     17816     17808     17807     17810     17811
     17808     17807     17810     17812     17808     17807     17810     17813
     17809     17807     17810     17811     17809     17807     17810     17812
     17809     17807     17810     17813     17810     17813     17816     17817
     17810     17813     17816     17818     17810     17813     17816     17819
     17811     17810     17813     17814     17811     17810     17813     17815
     17811     17810     17813     17816     17812     17810     17813     17814
     17812     17810     17813     17815     17812     17810     17813     17816
     17813     17816     17819     17820     17813     17816     17819     17821
     17813     17816     17819     17822     17814     17813     17816     17817
     17814     17813     17816     17818     17814     17813     17816     17819
     17815     17813     17816     17817     17815     17813     17816     17818
     17815     17813     17816     17819     17817     17816     17819     17820
     17817     17816     17819     17821     17817     17816     17819     17822
     17818     17816     17819     17820     17818     17816     17819     17821
     17818     17816     17819     17822     17823     17827     17830     17831
     17823     17827     17830     17832     17823     17827     17830     17837
     17824     17823     17827     17828     17824     17823     17827     17829
     17824     17823     17827     17830     17825     17823     17827     17828
     17825     17823     17827     17829     17825     17823     17827     17830
     17826     17823     17827     17828     17826     17823     17827     17829
     17826     17823     17827     17830     17827     17830     17837     17833
     17828     17827     17830     17831     17828     17827     17830     17832
     17828     17827     17830     17837     17829     17827     17830     17831
     17829     17827     17830     17832     17829     17827     17830     17837
     17830     17837     17833     17834     17830     17837     17833     17835
     17830     17837     17833     17836     17831     17830     17837     17833
     17832     17830     17837     17833     17833     17836     17838     17839
     17833     17836     17838     17840     17833     17836     17838     17841
     17834     17833     17836     17838     17835     17833     17836     17838
     17836     17838     17841     17842     17836     17838     17841     17843
     17836     17838     17841     17849     17837     17833     17836     17838
     17838     17841     17843     17844     17838     17841     17849     17850
     17838     17841     17849     17851     17838     17841     17849     17852
     17839     17838     17841     17842     17839     17838     17841     17843
     17839     17838     17841     17849     17840     17838     17841     17842
     17840     17838     17841     17843     17840     17838     17841     17849
     17841     17843     17844     17845     17841     17843     17844     17846
     17841     17849     17852     17853     17842     17841     17843     17844
     17842     17841     17849     17850     17842     17841     17849     17851
     17842     17841     17849     17852     17843     17841     17849     17850
     17843     17841     17849     17851     17843     17841     17849     17852
     17843     17844     17846     17847     17843     17844     17846     17848
     17843     17844     17846     17858     17844     17843     17841     17849
     17844     17846     17858     17859     17844     17846     17858     17860
     17844     17846     17858     17861     17845     17844     17846     17847
     17845     17844     17846     17848     17845     17844     17846     17858
     17846     17858     17861     17862     17846     17858     17861     17863
     17846     17858     17861     17864     17847     17846     17858     17859
     17847     17846     17858     17860     17847     17846     17858     17861
     17848     17846     17858     17859     17848     17846     17858     17860
     17848     17846     17858     17861     17849     17852     17853     17854
     17849     17852     17853     17855     17850     17849     17852     17853
     17851     17849     17852     17853     17852     17853     17855     17856
     17852     17853     17855     17857     17852     17853     17855     17902
     17853     17855     17902     17903     17853     17855     17902     17904
     17853     17855     17902     17905     17854     17853     17855     17856
     17854     17853     17855     17857     17854     17853     17855     17902
     17855     17902     17905     17906     17855     17902     17905     17907
     17855     17902     17905     17908     17856     17855     17902     17903
     17856     17855     17902     17904     17856     17855     17902     17905
     17857     17855     17902     17903     17857     17855     17902     17904
     17857     17855     17902     17905     17858     17861     17864     17865
     17858     17861     17864     17866     17858     17861     17864     17867
     17859     17858     17861     17862     17859     17858     17861     17863
     17859     17858     17861     17864     17860     17858     17861     17862
     17860     17858     17861     17863     17860     17858     17861     17864
     17861     17864     17867     17868     17861     17864     17867     17869
     17861     17864     17867     17870     17862     17861     17864     17865
     17862     17861     17864     17866     17862     17861     17864     17867
     17863     17861     17864     17865     17863     17861     17864     17866
     17863     17861     17864     17867     17864     17867     17870     17871
     17864     17867     17870     17872     17864     17867     17870     17873
     17865     17864     17867     17868     17865     17864     17867     17869
     17865     17864     17867     17870     17866     17864     17867     17868
     17866     17864     17867     17869     17866     17864     17867     17870
     17867     17870     17873     17874     17867     17870     17873     17875
     17867     17870     17873     17876     17868     17867     17870     17871
     17868     17867     17870     17872     17868     17867     17870     17873
     17869     17867     17870     17871     17869     17867     17870     17872
     17869     17867     17870     17873     17870     17873     17876     17877
     17870     17873     17876     17878     17870     17873     17876     17881
     17871     17870     17873     17874     17871     17870     17873     17875
     17871     17870     17873     17876     17872     17870     17873     17874
     17872     17870     17873     17875     17872     17870     17873     17876
     17873     17876     17878     17879     17873     17876     17878     17880
     17873     17876     17878     17881     17873     17876     17881     17878
     17873     17876     17881     17882     17873     17876     17881     17883
     17874     17873     17876     17877     17874     17873     17876     17878
     17874     17873     17876     17881     17875     17873     17876     17877
     17875     17873     17876     17878     17875     17873     17876     17881
     17876     17878     17881     17882     17876     17878     17881     17883
     17876     17881     17878     17879     17876     17881     17878     17880
     17876     17881     17883     17884     17876     17881     17883     17885
     17876     17881     17883     17886     17877     17876     17878     17879
     17877     17876     17878     17880     17877     17876     17878     17881
     17877     17876     17881     17878     17877     17876     17881     17882
     17877     17876     17881     17883     17878     17876     17881     17882
     17878     17876     17881     17883     17878     17881     17883     17884
     17878     17881     17883     17885     17878     17881     17883     17886
     17879     17878     17876     17881     17879     17878     17881     17882
     17879     17878     17881     17883     17880     17878     17876     17881
     17880     17878     17881     17882     17880     17878     17881     17883
     17881     17883     17886     17887     17881     17883     17886     17888
     17881     17883     17886     17889     17882     17881     17883     17884
     17882     17881     17883     17885     17882     17881     17883     17886
     17883     17886     17889     17890     17883     17886     17889     17891
     17883     17886     17889     17892     17884     17883     17886     17887
     17884     17883     17886     17888     17884     17883     17886     17889
     17885     17883     17886     17887     17885     17883     17886     17888
     17885     17883     17886     17889     17886     17889     17892     17893
     17886     17889     17892     17894     17886     17889     17892     17895
     17887     17886     17889     17890     17887     17886     17889     17891
     17887     17886     17889     17892     17888     17886     17889     17890
     17888     17886     17889     17891     17888     17886     17889     17892
     17889     17892     17895     17896     17889     17892     17895     17897
     17889     17892     17895     17898     17890     17889     17892     17893
     17890     17889     17892     17894     17890     17889     17892     17895
     17891     17889     17892     17893     17891     17889     17892     17894
     17891     17889     17892     17895     17892     17895     17898     17899
     17892     17895     17898     17900     17892     17895     17898     17901
     17893     17892     17895     17896     17893     17892     17895     17897
     17893     17892     17895     17898     17894     17892     17895     17896
     17894     17892     17895     17897     17894     17892     17895     17898
     17896     17895     17898     17899     17896     17895     17898     17900
     17896     17895     17898     17901     17897     17895     17898     17899
     17897     17895     17898     17900     17897     17895     17898     17901
     17902     17905     17908     17909     17902     17905     17908     17910
     17902     17905     17908     17911     17903     17902     17905     17906
     17903     17902     17905     17907     17903     17902     17905     17908
     17904     17902     17905     17906     17904     17902     17905     17907
     17904     17902     17905     17908     17905     17908     17911     17912
     17905     17908     17911     17913     17905     17908     17911     17914
     17906     17905     17908     17909     17906     17905     17908     17910
     17906     17905     17908     17911     17907     17905     17908     17909
     17907     17905     17908     17910     17907     17905     17908     17911
     17908     17911     17914     17915     17908     17911     17914     17916
     17908     17911     17914     17917     17909     17908     17911     17912
     17909     17908     17911     17913     17909     17908     17911     17914
     17910     17908     17911     17912     17910     17908     17911     17913
     17910     17908     17911     17914     17911     17914     17917     17918
     17911     17914     17917     17919     17911     17914     17917     17920
     17912     17911     17914     17915     17912     17911     17914     17916
     17912     17911     17914     17917     17913     17911     17914     17915
     17913     17911     17914     17916     17913     17911     17914     17917
     17914     17917     17920     17921     17914     17917     17920     17922
     17914     17917     17920     17923     17915     17914     17917     17918
     17915     17914     17917     17919     17915     17914     17917     17920
     17916     17914     17917     17918     17916     17914     17917     17919
     17916     17914     17917     17920     17917     17920     17923     17924
     17917     17920     17923     17925     17917     17920     17923     17926
     17918     17917     17920     17921     17918     17917     17920     17922
     17918     17917     17920     17923     17919     17917     17920     17921
     17919     17917     17920     17922     17919     17917     17920     17923
     17920     17923     17926     17927     17920     17923     17926     17928
     17920     17923     17926     17929     17921     17920     17923     17924
     17921     17920     17923     17925     17921     17920     17923     17926
     17922     17920     17923     17924     17922     17920     17923     17925
     17922     17920     17923     17926     17923     17926     17929     17930
     17923     17926     17929     17931     17923     17926     17929     17932
     17924     17923     17926     17927     17924     17923     17926     17928
     17924     17923     17926     17929     17925     17923     17926     17927
     17925     17923     17926     17928     17925     17923     17926     17929
     17926     17929     17932     17933     17926     17929     17932     17934
     17926     17929     17932     17935     17927     17926     17929     17930
     17927     17926     17929     17931     17927     17926     17929     17932
     17928     17926     17929     17930     17928     17926     17929     17931
     17928     17926     17929     17932     17929     17932     17935     17936
     17929     17932     17935     17937     17929     17932     17935     17938
     17930     17929     17932     17933     17930     17929     17932     17934
     17930     17929     17932     17935     17931     17929     17932     17933
     17931     17929     17932     17934     17931     17929     17932     17935
     17932     17935     17938     17939     17932     17935     17938     17940
     17932     17935     17938     17941     17933     17932     17935     17936
     17933     17932     17935     17937     17933     17932     17935     17938
     17934     17932     17935     17936     17934     17932     17935     17937
     17934     17932     17935     17938     17935     17938     17941     17942
     17935     17938     17941     17943     17935     17938     17941     17944
     17936     17935     17938     17939     17936     17935     17938     17940
     17936     17935     17938     17941     17937     17935     17938     17939
     17937     17935     17938     17940     17937     17935     17938     17941
     17939     17938     17941     17942     17939     17938     17941     17943
     17939     17938     17941     17944     17940     17938     17941     17942
     17940     17938     17941     17943     17940     17938     17941     17944
     17945     17949     17952     17953     17945     17949     17952     17954
     17945     17949     17952     17959     17946     17945     17949     17950
     17946     17945     17949     17951     17946     17945     17949     17952
     17947     17945     17949     17950     17947     17945     17949     17951
     17947     17945     17949     17952     17948     17945     17949     17950
     17948     17945     17949     17951     17948     17945     17949     17952
     17949     17952     17959     17955     17950     17949     17952     17953
     17950     17949     17952     17954     17950     17949     17952     17959
     17951     17949     17952     17953     17951     17949     17952     17954
     17951     17949     17952     17959     17952     17959     17955     17956
     17952     17959     17955     17957     17952     17959     17955     17958
     17953     17952     17959     17955     17954     17952     17959     17955
     17955     17958     17960     17961     17955     17958     17960     17962
     17955     17958     17960     17963     17956     17955     17958     17960
     17957     17955     17958     17960     17958     17960     17963     17964
     17958     17960     17963     17965     17958     17960     17963     17971
     17959     17955     17958     17960     17960     17963     17965     17966
     17960     17963     17971     17972     17960     17963     17971     17973
     17960     17963     17971     17974     17961     17960     17963     17964
     17961     17960     17963     17965     17961     17960     17963     17971
     17962     17960     17963     17964     17962     17960     17963     17965
     17962     17960     17963     17971     17963     17965     17966     17967
     17963     17965     17966     17968     17963     17971     17974     17975
     17964     17963     17965     17966     17964     17963     17971     17972
     17964     17963     17971     17973     17964     17963     17971     17974
     17965     17963     17971     17972     17965     17963     17971     17973
     17965     17963     17971     17974     17965     17966     17968     17969
     17965     17966     17968     17970     17965     17966     17968     17980
     17966     17965     17963     17971     17966     17968     17980     17981
     17966     17968     17980     17982     17966     17968     17980     17983
     17967     17966     17968     17969     17967     17966     17968     17970
     17967     17966     17968     17980     17968     17980     17983     17984
     17968     17980     17983     17985     17968     17980     17983     17986
     17969     17968     17980     17981     17969     17968     17980     17982
     17969     17968     17980     17983     17970     17968     17980     17981
     17970     17968     17980     17982     17970     17968     17980     17983
     17971     17974     17975     17976     17971     17974     17975     17977
     17972     17971     17974     17975     17973     17971     17974     17975
     17974     17975     17977     17978     17974     17975     17977     17979
     17974     17975     17977     18024     17975     17977     18024     18025
     17975     17977     18024     18026     17975     17977     18024     18027
     17976     17975     17977     17978     17976     17975     17977     17979
     17976     17975     17977     18024     17977     18024     18027     18028
     17977     18024     18027     18029     17977     18024     18027     18030
     17978     17977     18024     18025     17978     17977     18024     18026
     17978     17977     18024     18027     17979     17977     18024     18025
     17979     17977     18024     18026     17979     17977     18024     18027
     17980     17983     17986     17987     17980     17983     17986     17988
     17980     17983     17986     17989     17981     17980     17983     17984
     17981     17980     17983     17985     17981     17980     17983     17986
     17982     17980     17983     17984     17982     17980     17983     17985
     17982     17980     17983     17986     17983     17986     17989     17990
     17983     17986     17989     17991     17983     17986     17989     17992
     17984     17983     17986     17987     17984     17983     17986     17988
     17984     17983     17986     17989     17985     17983     17986     17987
     17985     17983     17986     17988     17985     17983     17986     17989
     17986     17989     17992     17993     17986     17989     17992     17994
     17986     17989     17992     17995     17987     17986     17989     17990
     17987     17986     17989     17991     17987     17986     17989     17992
     17988     17986     17989     17990     17988     17986     17989     17991
     17988     17986     17989     17992     17989     17992     17995     17996
     17989     17992     17995     17997     17989     17992     17995     17998
     17990     17989     17992     17993     17990     17989     17992     17994
     17990     17989     17992     17995     17991     17989     17992     17993
     17991     17989     17992     17994     17991     17989     17992     17995
     17992     17995     17998     17999     17992     17995     17998     18000
     17992     17995     17998     18003     17993     17992     17995     17996
     17993     17992     17995     17997     17993     17992     17995     17998
     17994     17992     17995     17996     17994     17992     17995     17997
     17994     17992     17995     17998     17995     17998     18000     18001
     17995     17998     18000     18002     17995     17998     18000     18003
     17995     17998     18003     18000     17995     17998     18003     18004
     17995     17998     18003     18005     17996     17995     17998     17999
     17996     17995     17998     18000     17996     17995     17998     18003
     17997     17995     17998     17999     17997     17995     17998     18000
     17997     17995     17998     18003     17998     18000     18003     18004
     17998     18000     18003     18005     17998     18003     18000     18001
     17998     18003     18000     18002     17998     18003     18005     18006
     17998     18003     18005     18007     17998     18003     18005     18008
     17999     17998     18000     18001     17999     17998     18000     18002
     17999     17998     18000     18003     17999     17998     18003     18000
     17999     17998     18003     18004     17999     17998     18003     18005
     18000     17998     18003     18004     18000     17998     18003     18005
     18000     18003     18005     18006     18000     18003     18005     18007
     18000     18003     18005     18008     18001     18000     17998     18003
     18001     18000     18003     18004     18001     18000     18003     18005
     18002     18000     17998     18003     18002     18000     18003     18004
     18002     18000     18003     18005     18003     18005     18008     18009
     18003     18005     18008     18010     18003     18005     18008     18011
     18004     18003     18005     18006     18004     18003     18005     18007
     18004     18003     18005     18008     18005     18008     18011     18012
     18005     18008     18011     18013     18005     18008     18011     18014
     18006     18005     18008     18009     18006     18005     18008     18010
     18006     18005     18008     18011     18007     18005     18008     18009
     18007     18005     18008     18010     18007     18005     18008     18011
     18008     18011     18014     18015     18008     18011     18014     18016
     18008     18011     18014     18017     18009     18008     18011     18012
     18009     18008     18011     18013     18009     18008     18011     18014
     18010     18008     18011     18012     18010     18008     18011     18013
     18010     18008     18011     18014     18011     18014     18017     18018
     18011     18014     18017     18019     18011     18014     18017     18020
     18012     18011     18014     18015     18012     18011     18014     18016
     18012     18011     18014     18017     18013     18011     18014     18015
     18013     18011     18014     18016     18013     18011     18014     18017
     18014     18017     18020     18021     18014     18017     18020     18022
     18014     18017     18020     18023     18015     18014     18017     18018
     18015     18014     18017     18019     18015     18014     18017     18020
     18016     18014     18017     18018     18016     18014     18017     18019
     18016     18014     18017     18020     18018     18017     18020     18021
     18018     18017     18020     18022     18018     18017     18020     18023
     18019     18017     18020     18021     18019     18017     18020     18022
     18019     18017     18020     18023     18024     18027     18030     18031
     18024     18027     18030     18032     18024     18027     18030     18033
     18025     18024     18027     18028     18025     18024     18027     18029
     18025     18024     18027     18030     18026     18024     18027     18028
     18026     18024     18027     18029     18026     18024     18027     18030
     18027     18030     18033     18034     18027     18030     18033     18035
     18027     18030     18033     18036     18028     18027     18030     18031
     18028     18027     18030     18032     18028     18027     18030     18033
     18029     18027     18030     18031     18029     18027     18030     18032
     18029     18027     18030     18033     18030     18033     18036     18037
     18030     18033     18036     18038     18030     18033     18036     18039
     18031     18030     18033     18034     18031     18030     18033     18035
     18031     18030     18033     18036     18032     18030     18033     18034
     18032     18030     18033     18035     18032     18030     18033     18036
     18033     18036     18039     18040     18033     18036     18039     18041
     18033     18036     18039     18042     18034     18033     18036     18037
     18034     18033     18036     18038     18034     18033     18036     18039
     18035     18033     18036     18037     18035     18033     18036     18038
     18035     18033     18036     18039     18036     18039     18042     18043
     18036     18039     18042     18044     18036     18039     18042     18045
     18037     18036     18039     18040     18037     18036     18039     18041
     18037     18036     18039     18042     18038     18036     18039     18040
     18038     18036     18039     18041     18038     18036     18039     18042
     18039     18042     18045     18046     18039     18042     18045     18047
     18039     18042     18045     18048     18040     18039     18042     18043
     18040     18039     18042     18044     18040     18039     18042     18045
     18041     18039     18042     18043     18041     18039     18042     18044
     18041     18039     18042     18045     18042     18045     18048     18049
     18042     18045     18048     18050     18042     18045     18048     18051
     18043     18042     18045     18046     18043     18042     18045     18047
     18043     18042     18045     18048     18044     18042     18045     18046
     18044     18042     18045     18047     18044     18042     18045     18048
     18045     18048     18051     18052     18045     18048     18051     18053
     18045     18048     18051     18054     18046     18045     18048     18049
     18046     18045     18048     18050     18046     18045     18048     18051
     18047     18045     18048     18049     18047     18045     18048     18050
     18047     18045     18048     18051     18048     18051     18054     18055
     18048     18051     18054     18056     18048     18051     18054     18057
     18049     18048     18051     18052     18049     18048     18051     18053
     18049     18048     18051     18054     18050     18048     18051     18052
     18050     18048     18051     18053     18050     18048     18051     18054
     18051     18054     18057     18058     18051     18054     18057     18059
     18051     18054     18057     18060     18052     18051     18054     18055
     18052     18051     18054     18056     18052     18051     18054     18057
     18053     18051     18054     18055     18053     18051     18054     18056
     18053     18051     18054     18057     18054     18057     18060     18061
     18054     18057     18060     18062     18054     18057     18060     18063
     18055     18054     18057     18058     18055     18054     18057     18059
     18055     18054     18057     18060     18056     18054     18057     18058
     18056     18054     18057     18059     18056     18054     18057     18060
     18057     18060     18063     18064     18057     18060     18063     18065
     18057     18060     18063     18066     18058     18057     18060     18061
     18058     18057     18060     18062     18058     18057     18060     18063
     18059     18057     18060     18061     18059     18057     18060     18062
     18059     18057     18060     18063     18061     18060     18063     18064
     18061     18060     18063     18065     18061     18060     18063     18066
     18062     18060     18063     18064     18062     18060     18063     18065
     18062     18060     18063     18066     18067     18071     18074     18075
     18067     18071     18074     18076     18067     18071     18074     18081
     18068     18067     18071     18072     18068     18067     18071     18073
     18068     18067     18071     18074     18069     18067     18071     18072
     18069     18067     18071     18073     18069     18067     18071     18074
     18070     18067     18071     18072     18070     18067     18071     18073
     18070     18067     18071     18074     18071     18074     18081     18077
     18072     18071     18074     18075     18072     18071     18074     18076
     18072     18071     18074     18081     18073     18071     18074     18075
     18073     18071     18074     18076     18073     18071     18074     18081
     18074     18081     18077     18078     18074     18081     18077     18079
     18074     18081     18077     18080     18075     18074     18081     18077
     18076     18074     18081     18077     18077     18080     18082     18083
     18077     18080     18082     18084     18077     18080     18082     18085
     18078     18077     18080     18082     18079     18077     18080     18082
     18080     18082     18085     18086     18080     18082     18085     18087
     18080     18082     18085     18093     18081     18077     18080     18082
     18082     18085     18087     18088     18082     18085     18093     18094
     18082     18085     18093     18095     18082     18085     18093     18096
     18083     18082     18085     18086     18083     18082     18085     18087
     18083     18082     18085     18093     18084     18082     18085     18086
     18084     18082     18085     18087     18084     18082     18085     18093
     18085     18087     18088     18089     18085     18087     18088     18090
     18085     18093     18096     18097     18086     18085     18087     18088
     18086     18085     18093     18094     18086     18085     18093     18095
     18086     18085     18093     18096     18087     18085     18093     18094
     18087     18085     18093     18095     18087     18085     18093     18096
     18087     18088     18090     18091     18087     18088     18090     18092
     18087     18088     18090     18102     18088     18087     18085     18093
     18088     18090     18102     18103     18088     18090     18102     18104
     18088     18090     18102     18105     18089     18088     18090     18091
     18089     18088     18090     18092     18089     18088     18090     18102
     18090     18102     18105     18106     18090     18102     18105     18107
     18090     18102     18105     18108     18091     18090     18102     18103
     18091     18090     18102     18104     18091     18090     18102     18105
     18092     18090     18102     18103     18092     18090     18102     18104
     18092     18090     18102     18105     18093     18096     18097     18098
     18093     18096     18097     18099     18094     18093     18096     18097
     18095     18093     18096     18097     18096     18097     18099     18100
     18096     18097     18099     18101     18096     18097     18099     18146
     18097     18099     18146     18147     18097     18099     18146     18148
     18097     18099     18146     18149     18098     18097     18099     18100
     18098     18097     18099     18101     18098     18097     18099     18146
     18099     18146     18149     18150     18099     18146     18149     18151
     18099     18146     18149     18152     18100     18099     18146     18147
     18100     18099     18146     18148     18100     18099     18146     18149
     18101     18099     18146     18147     18101     18099     18146     18148
     18101     18099     18146     18149     18102     18105     18108     18109
     18102     18105     18108     18110     18102     18105     18108     18111
     18103     18102     18105     18106     18103     18102     18105     18107
     18103     18102     18105     18108     18104     18102     18105     18106
     18104     18102     18105     18107     18104     18102     18105     18108
     18105     18108     18111     18112     18105     18108     18111     18113
     18105     18108     18111     18114     18106     18105     18108     18109
     18106     18105     18108     18110     18106     18105     18108     18111
     18107     18105     18108     18109     18107     18105     18108     18110
     18107     18105     18108     18111     18108     18111     18114     18115
     18108     18111     18114     18116     18108     18111     18114     18117
     18109     18108     18111     18112     18109     18108     18111     18113
     18109     18108     18111     18114     18110     18108     18111     18112
     18110     18108     18111     18113     18110     18108     18111     18114
     18111     18114     18117     18118     18111     18114     18117     18119
     18111     18114     18117     18120     18112     18111     18114     18115
     18112     18111     18114     18116     18112     18111     18114     18117
     18113     18111     18114     18115     18113     18111     18114     18116
     18113     18111     18114     18117     18114     18117     18120     18121
     18114     18117     18120     18122     18114     18117     18120     18125
     18115     18114     18117     18118     18115     18114     18117     18119
     18115     18114     18117     18120     18116     18114     18117     18118
     18116     18114     18117     18119     18116     18114     18117     18120
     18117     18120     18122     18123     18117     18120     18122     18124
     18117     18120     18122     18125     18117     18120     18125     18122
     18117     18120     18125     18126     18117     18120     18125     18127
     18118     18117     18120     18121     18118     18117     18120     18122
     18118     18117     18120     18125     18119     18117     18120     18121
     18119     18117     18120     18122     18119     18117     18120     18125
     18120     18122     18125     18126     18120     18122     18125     18127
     18120     18125     18122     18123     18120     18125     18122     18124
     18120     18125     18127     18128     18120     18125     18127     18129
     18120     18125     18127     18130     18121     18120     18122     18123
     18121     18120     18122     18124     18121     18120     18122     18125
     18121     18120     18125     18122     18121     18120     18125     18126
     18121     18120     18125     18127     18122     18120     18125     18126
     18122     18120     18125     18127     18122     18125     18127     18128
     18122     18125     18127     18129     18122     18125     18127     18130
     18123     18122     18120     18125     18123     18122     18125     18126
     18123     18122     18125     18127     18124     18122     18120     18125
     18124     18122     18125     18126     18124     18122     18125     18127
     18125     18127     18130     18131     18125     18127     18130     18132
     18125     18127     18130     18133     18126     18125     18127     18128
     18126     18125     18127     18129     18126     18125     18127     18130
     18127     18130     18133     18134     18127     18130     18133     18135
     18127     18130     18133     18136     18128     18127     18130     18131
     18128     18127     18130     18132     18128     18127     18130     18133
     18129     18127     18130     18131     18129     18127     18130     18132
     18129     18127     18130     18133     18130     18133     18136     18137
     18130     18133     18136     18138     18130     18133     18136     18139
     18131     18130     18133     18134     18131     18130     18133     18135
     18131     18130     18133     18136     18132     18130     18133     18134
     18132     18130     18133     18135     18132     18130     18133     18136
     18133     18136     18139     18140     18133     18136     18139     18141
     18133     18136     18139     18142     18134     18133     18136     18137
     18134     18133     18136     18138     18134     18133     18136     18139
     18135     18133     18136     18137     18135     18133     18136     18138
     18135     18133     18136     18139     18136     18139     18142     18143
     18136     18139     18142     18144     18136     18139     18142     18145
     18137     18136     18139     18140     18137     18136     18139     18141
     18137     18136     18139     18142     18138     18136     18139     18140
     18138     18136     18139     18141     18138     18136     18139     18142
     18140     18139     18142     18143     18140     18139     18142     18144
     18140     18139     18142     18145     18141     18139     18142     18143
     18141     18139     18142     18144     18141     18139     18142     18145
     18146     18149     18152     18153     18146     18149     18152     18154
     18146     18149     18152     18155     18147     18146     18149     18150
     18147     18146     18149     18151     18147     18146     18149     18152
     18148     18146     18149     18150     18148     18146     18149     18151
     18148     18146     18149     18152     18149     18152     18155     18156
     18149     18152     18155     18157     18149     18152     18155     18158
     18150     18149     18152     18153     18150     18149     18152     18154
     18150     18149     18152     18155     18151     18149     18152     18153
     18151     18149     18152     18154     18151     18149     18152     18155
     18152     18155     18158     18159     18152     18155     18158     18160
     18152     18155     18158     18161     18153     18152     18155     18156
     18153     18152     18155     18157     18153     18152     18155     18158
     18154     18152     18155     18156     18154     18152     18155     18157
     18154     18152     18155     18158     18155     18158     18161     18162
     18155     18158     18161     18163     18155     18158     18161     18164
     18156     18155     18158     18159     18156     18155     18158     18160
     18156     18155     18158     18161     18157     18155     18158     18159
     18157     18155     18158     18160     18157     18155     18158     18161
     18158     18161     18164     18165     18158     18161     18164     18166
     18158     18161     18164     18167     18159     18158     18161     18162
     18159     18158     18161     18163     18159     18158     18161     18164
     18160     18158     18161     18162     18160     18158     18161     18163
     18160     18158     18161     18164     18161     18164     18167     18168
     18161     18164     18167     18169     18161     18164     18167     18170
     18162     18161     18164     18165     18162     18161     18164     18166
     18162     18161     18164     18167     18163     18161     18164     18165
     18163     18161     18164     18166     18163     18161     18164     18167
     18164     18167     18170     18171     18164     18167     18170     18172
     18164     18167     18170     18173     18165     18164     18167     18168
     18165     18164     18167     18169     18165     18164     18167     18170
     18166     18164     18167     18168     18166     18164     18167     18169
     18166     18164     18167     18170     18167     18170     18173     18174
     18167     18170     18173     18175     18167     18170     18173     18176
     18168     18167     18170     18171     18168     18167     18170     18172
     18168     18167     18170     18173     18169     18167     18170     18171
     18169     18167     18170     18172     18169     18167     18170     18173
     18170     18173     18176     18177     18170     18173     18176     18178
     18170     18173     18176     18179     18171     18170     18173     18174
     18171     18170     18173     18175     18171     18170     18173     18176
     18172     18170     18173     18174     18172     18170     18173     18175
     18172     18170     18173     18176     18173     18176     18179     18180
     18173     18176     18179     18181     18173     18176     18179     18182
     18174     18173     18176     18177     18174     18173     18176     18178
     18174     18173     18176     18179     18175     18173     18176     18177
     18175     18173     18176     18178     18175     18173     18176     18179
     18176     18179     18182     18183     18176     18179     18182     18184
     18176     18179     18182     18185     18177     18176     18179     18180
     18177     18176     18179     18181     18177     18176     18179     18182
     18178     18176     18179     18180     18178     18176     18179     18181
     18178     18176     18179     18182     18180     18179     18182     18183
     18180     18179     18182     18184     18180     18179     18182     18185
     18181     18179     18182     18183     18181     18179     18182     18184
     18181     18179     18182     18185     18186     18190     18193     18194
     18186     18190     18193     18195     18186     18190     18193     18200
     18187     18186     18190     18191     18187     18186     18190     18192
     18187     18186     18190     18193     18188     18186     18190     18191
     18188     18186     18190     18192     18188     18186     18190     18193
     18189     18186     18190     18191     18189     18186     18190     18192
     18189     18186     18190     18193     18190     18193     18200     18196
     18191     18190     18193     18194     18191     18190     18193     18195
     18191     18190     18193     18200     18192     18190     18193     18194
     18192     18190     18193     18195     18192     18190     18193     18200
     18193     18200     18196     18197     18193     18200     18196     18198
     18193     18200     18196     18199     18194     18193     18200     18196
     18195     18193     18200     18196     18196     18199     18201     18202
     18196     18199     18201     18203     18196     18199     18201     18204
     18197     18196     18199     18201     18198     18196     18199     18201
     18199     18201     18204     18205     18199     18201     18204     18206
     18199     18201     18204     18212     18200     18196     18199     18201
     18201     18204     18206     18207     18201     18204     18212     18213
     18201     18204     18212     18214     18201     18204     18212     18215
     18202     18201     18204     18205     18202     18201     18204     18206
     18202     18201     18204     18212     18203     18201     18204     18205
     18203     18201     18204     18206     18203     18201     18204     18212
     18204     18206     18207     18208     18204     18206     18207     18209
     18204     18212     18215     18216     18205     18204     18206     18207
     18205     18204     18212     18213     18205     18204     18212     18214
     18205     18204     18212     18215     18206     18204     18212     18213
     18206     18204     18212     18214     18206     18204     18212     18215
     18206     18207     18209     18210     18206     18207     18209     18211
     18206     18207     18209     18221     18207     18206     18204     18212
     18207     18209     18221     18222     18207     18209     18221     18223
     18207     18209     18221     18224     18208     18207     18209     18210
     18208     18207     18209     18211     18208     18207     18209     18221
     18209     18221     18224     18225     18209     18221     18224     18226
     18209     18221     18224     18227     18210     18209     18221     18222
     18210     18209     18221     18223     18210     18209     18221     18224
     18211     18209     18221     18222     18211     18209     18221     18223
     18211     18209     18221     18224     18212     18215     18216     18217
     18212     18215     18216     18218     18213     18212     18215     18216
     18214     18212     18215     18216     18215     18216     18218     18219
     18215     18216     18218     18220     18215     18216     18218     18265
     18216     18218     18265     18266     18216     18218     18265     18267
     18216     18218     18265     18268     18217     18216     18218     18219
     18217     18216     18218     18220     18217     18216     18218     18265
     18218     18265     18268     18269     18218     18265     18268     18270
     18218     18265     18268     18271     18219     18218     18265     18266
     18219     18218     18265     18267     18219     18218     18265     18268
     18220     18218     18265     18266     18220     18218     18265     18267
     18220     18218     18265     18268     18221     18224     18227     18228
     18221     18224     18227     18229     18221     18224     18227     18230
     18222     18221     18224     18225     18222     18221     18224     18226
     18222     18221     18224     18227     18223     18221     18224     18225
     18223     18221     18224     18226     18223     18221     18224     18227
     18224     18227     18230     18231     18224     18227     18230     18232
     18224     18227     18230     18233     18225     18224     18227     18228
     18225     18224     18227     18229     18225     18224     18227     18230
     18226     18224     18227     18228     18226     18224     18227     18229
     18226     18224     18227     18230     18227     18230     18233     18234
     18227     18230     18233     18235     18227     18230     18233     18236
     18228     18227     18230     18231     18228     18227     18230     18232
     18228     18227     18230     18233     18229     18227     18230     18231
     18229     18227     18230     18232     18229     18227     18230     18233
     18230     18233     18236     18237     18230     18233     18236     18238
     18230     18233     18236     18239     18231     18230     18233     18234
     18231     18230     18233     18235     18231     18230     18233     18236
     18232     18230     18233     18234     18232     18230     18233     18235
     18232     18230     18233     18236     18233     18236     18239     18240
     18233     18236     18239     18241     18233     18236     18239     18244
     18234     18233     18236     18237     18234     18233     18236     18238
     18234     18233     18236     18239     18235     18233     18236     18237
     18235     18233     18236     18238     18235     18233     18236     18239
     18236     18239     18241     18242     18236     18239     18241     18243
     18236     18239     18241     18244     18236     18239     18244     18241
     18236     18239     18244     18245     18236     18239     18244     18246
     18237     18236     18239     18240     18237     18236     18239     18241
     18237     18236     18239     18244     18238     18236     18239     18240
     18238     18236     18239     18241     18238     18236     18239     18244
     18239     18241     18244     18245     18239     18241     18244     18246
     18239     18244     18241     18242     18239     18244     18241     18243
     18239     18244     18246     18247     18239     18244     18246     18248
     18239     18244     18246     18249     18240     18239     18241     18242
     18240     18239     18241     18243     18240     18239     18241     18244
     18240     18239     18244     18241     18240     18239     18244     18245
     18240     18239     18244     18246     18241     18239     18244     18245
     18241     18239     18244     18246     18241     18244     18246     18247
     18241     18244     18246     18248     18241     18244     18246     18249
     18242     18241     18239     18244     18242     18241     18244     18245
     18242     18241     18244     18246     18243     18241     18239     18244
     18243     18241     18244     18245     18243     18241     18244     18246
     18244     18246     18249     18250     18244     18246     18249     18251
     18244     18246     18249     18252     18245     18244     18246     18247
     18245     18244     18246     18248     18245     18244     18246     18249
     18246     18249     18252     18253     18246     18249     18252     18254
     18246     18249     18252     18255     18247     18246     18249     18250
     18247     18246     18249     18251     18247     18246     18249     18252
     18248     18246     18249     18250     18248     18246     18249     18251
     18248     18246     18249     18252     18249     18252     18255     18256
     18249     18252     18255     18257     18249     18252     18255     18258
     18250     18249     18252     18253     18250     18249     18252     18254
     18250     18249     18252     18255     18251     18249     18252     18253
     18251     18249     18252     18254     18251     18249     18252     18255
     18252     18255     18258     18259     18252     18255     18258     18260
     18252     18255     18258     18261     18253     18252     18255     18256
     18253     18252     18255     18257     18253     18252     18255     18258
     18254     18252     18255     18256     18254     18252     18255     18257
     18254     18252     18255     18258     18255     18258     18261     18262
     18255     18258     18261     18263     18255     18258     18261     18264
     18256     18255     18258     18259     18256     18255     18258     18260
     18256     18255     18258     18261     18257     18255     18258     18259
     18257     18255     18258     18260     18257     18255     18258     18261
     18259     18258     18261     18262     18259     18258     18261     18263
     18259     18258     18261     18264     18260     18258     18261     18262
     18260     18258     18261     18263     18260     18258     18261     18264
     18265     18268     18271     18272     18265     18268     18271     18273
     18265     18268     18271     18274     18266     18265     18268     18269
     18266     18265     18268     18270     18266     18265     18268     18271
     18267     18265     18268     18269     18267     18265     18268     18270
     18267     18265     18268     18271     18268     18271     18274     18275
     18268     18271     18274     18276     18268     18271     18274     18277
     18269     18268     18271     18272     18269     18268     18271     18273
     18269     18268     18271     18274     18270     18268     18271     18272
     18270     18268     18271     18273     18270     18268     18271     18274
     18271     18274     18277     18278     18271     18274     18277     18279
     18271     18274     18277     18280     18272     18271     18274     18275
     18272     18271     18274     18276     18272     18271     18274     18277
     18273     18271     18274     18275     18273     18271     18274     18276
     18273     18271     18274     18277     18274     18277     18280     18281
     18274     18277     18280     18282     18274     18277     18280     18283
     18275     18274     18277     18278     18275     18274     18277     18279
     18275     18274     18277     18280     18276     18274     18277     18278
     18276     18274     18277     18279     18276     18274     18277     18280
     18277     18280     18283     18284     18277     18280     18283     18285
     18277     18280     18283     18286     18278     18277     18280     18281
     18278     18277     18280     18282     18278     18277     18280     18283
     18279     18277     18280     18281     18279     18277     18280     18282
     18279     18277     18280     18283     18280     18283     18286     18287
     18280     18283     18286     18288     18280     18283     18286     18289
     18281     18280     18283     18284     18281     18280     18283     18285
     18281     18280     18283     18286     18282     18280     18283     18284
     18282     18280     18283     18285     18282     18280     18283     18286
     18283     18286     18289     18290     18283     18286     18289     18291
     18283     18286     18289     18292     18284     18283     18286     18287
     18284     18283     18286     18288     18284     18283     18286     18289
     18285     18283     18286     18287     18285     18283     18286     18288
     18285     18283     18286     18289     18286     18289     18292     18293
     18286     18289     18292     18294     18286     18289     18292     18295
     18287     18286     18289     18290     18287     18286     18289     18291
     18287     18286     18289     18292     18288     18286     18289     18290
     18288     18286     18289     18291     18288     18286     18289     18292
     18289     18292     18295     18296     18289     18292     18295     18297
     18289     18292     18295     18298     18290     18289     18292     18293
     18290     18289     18292     18294     18290     18289     18292     18295
     18291     18289     18292     18293     18291     18289     18292     18294
     18291     18289     18292     18295     18292     18295     18298     18299
     18292     18295     18298     18300     18292     18295     18298     18301
     18293     18292     18295     18296     18293     18292     18295     18297
     18293     18292     18295     18298     18294     18292     18295     18296
     18294     18292     18295     18297     18294     18292     18295     18298
     18295     18298     18301     18302     18295     18298     18301     18303
     18295     18298     18301     18304     18296     18295     18298     18299
     18296     18295     18298     18300     18296     18295     18298     18301
     18297     18295     18298     18299     18297     18295     18298     18300
     18297     18295     18298     18301     18298     18301     18304     18305
     18298     18301     18304     18306     18298     18301     18304     18307
     18299     18298     18301     18302     18299     18298     18301     18303
     18299     18298     18301     18304     18300     18298     18301     18302
     18300     18298     18301     18303     18300     18298     18301     18304
     18302     18301     18304     18305     18302     18301     18304     18306
     18302     18301     18304     18307     18303     18301     18304     18305
     18303     18301     18304     18306     18303     18301     18304     18307
     18308     18312     18315     18316     18308     18312     18315     18317
     18308     18312     18315     18322     18309     18308     18312     18313
     18309     18308     18312     18314     18309     18308     18312     18315
     18310     18308     18312     18313     18310     18308     18312     18314
     18310     18308     18312     18315     18311     18308     18312     18313
     18311     18308     18312     18314     18311     18308     18312     18315
     18312     18315     18322     18318     18313     18312     18315     18316
     18313     18312     18315     18317     18313     18312     18315     18322
     18314     18312     18315     18316     18314     18312     18315     18317
     18314     18312     18315     18322     18315     18322     18318     18319
     18315     18322     18318     18320     18315     18322     18318     18321
     18316     18315     18322     18318     18317     18315     18322     18318
     18318     18321     18323     18324     18318     18321     18323     18325
     18318     18321     18323     18326     18319     18318     18321     18323
     18320     18318     18321     18323     18321     18323     18326     18327
     18321     18323     18326     18328     18321     18323     18326     18334
     18322     18318     18321     18323     18323     18326     18328     18329
     18323     18326     18334     18335     18323     18326     18334     18336
     18323     18326     18334     18337     18324     18323     18326     18327
     18324     18323     18326     18328     18324     18323     18326     18334
     18325     18323     18326     18327     18325     18323     18326     18328
     18325     18323     18326     18334     18326     18328     18329     18330
     18326     18328     18329     18331     18326     18334     18337     18338
     18327     18326     18328     18329     18327     18326     18334     18335
     18327     18326     18334     18336     18327     18326     18334     18337
     18328     18326     18334     18335     18328     18326     18334     18336
     18328     18326     18334     18337     18328     18329     18331     18332
     18328     18329     18331     18333     18328     18329     18331     18343
     18329     18328     18326     18334     18329     18331     18343     18344
     18329     18331     18343     18345     18329     18331     18343     18346
     18330     18329     18331     18332     18330     18329     18331     18333
     18330     18329     18331     18343     18331     18343     18346     18347
     18331     18343     18346     18348     18331     18343     18346     18349
     18332     18331     18343     18344     18332     18331     18343     18345
     18332     18331     18343     18346     18333     18331     18343     18344
     18333     18331     18343     18345     18333     18331     18343     18346
     18334     18337     18338     18339     18334     18337     18338     18340
     18335     18334     18337     18338     18336     18334     18337     18338
     18337     18338     18340     18341     18337     18338     18340     18342
     18337     18338     18340     18390     18338     18340     18390     18391
     18338     18340     18390     18392     18338     18340     18390     18393
     18339     18338     18340     18341     18339     18338     18340     18342
     18339     18338     18340     18390     18340     18390     18393     18394
     18340     18390     18393     18395     18340     18390     18393     18396
     18341     18340     18390     18391     18341     18340     18390     18392
     18341     18340     18390     18393     18342     18340     18390     18391
     18342     18340     18390     18392     18342     18340     18390     18393
     18343     18346     18349     18350     18343     18346     18349     18351
     18343     18346     18349     18352     18344     18343     18346     18347
     18344     18343     18346     18348     18344     18343     18346     18349
     18345     18343     18346     18347     18345     18343     18346     18348
     18345     18343     18346     18349     18346     18349     18352     18353
     18346     18349     18352     18354     18346     18349     18352     18355
     18347     18346     18349     18350     18347     18346     18349     18351
     18347     18346     18349     18352     18348     18346     18349     18350
     18348     18346     18349     18351     18348     18346     18349     18352
     18349     18352     18355     18356     18349     18352     18355     18357
     18349     18352     18355     18358     18350     18349     18352     18353
     18350     18349     18352     18354     18350     18349     18352     18355
     18351     18349     18352     18353     18351     18349     18352     18354
     18351     18349     18352     18355     18352     18355     18358     18359
     18352     18355     18358     18360     18352     18355     18358     18361
     18353     18352     18355     18356     18353     18352     18355     18357
     18353     18352     18355     18358     18354     18352     18355     18356
     18354     18352     18355     18357     18354     18352     18355     18358
     18355     18358     18361     18362     18355     18358     18361     18363
     18356     18355     18358     18359     18356     18355     18358     18360
     18356     18355     18358     18361     18357     18355     18358     18359
     18357     18355     18358     18360     18357     18355     18358     18361
     18358     18361     18363     18364     18358     18361     18363     18365
     18359     18358     18361     18362     18359     18358     18361     18363
     18360     18358     18361     18362     18360     18358     18361     18363
     18361     18363     18365     18366     18361     18363     18365     18367
     18361     18363     18365     18368     18362     18361     18363     18364
     18362     18361     18363     18365     18363     18365     18368     18369
     18363     18365     18368     18370     18363     18365     18368     18371
     18364     18363     18365     18366     18364     18363     18365     18367
     18364     18363     18365     18368     18365     18368     18371     18372
     18365     18368     18371     18373     18365     18368     18371     18374
     18366     18365     18368     18369     18366     18365     18368     18370
     18366     18365     18368     18371     18367     18365     18368     18369
     18367     18365     18368     18370     18367     18365     18368     18371
     18368     18371     18374     18375     18368     18371     18374     18376
     18368     18371     18374     18377     18369     18368     18371     18372
     18369     18368     18371     18373     18369     18368     18371     18374
     18370     18368     18371     18372     18370     18368     18371     18373
     18370     18368     18371     18374     18371     18374     18377     18378
     18371     18374     18377     18379     18371     18374     18377     18380
     18372     18371     18374     18375     18372     18371     18374     18376
     18372     18371     18374     18377     18373     18371     18374     18375
     18373     18371     18374     18376     18373     18371     18374     18377
     18374     18377     18380     18381     18374     18377     18380     18382
     18374     18377     18380     18383     18375     18374     18377     18378
     18375     18374     18377     18379     18375     18374     18377     18380
     18376     18374     18377     18378     18376     18374     18377     18379
     18376     18374     18377     18380     18377     18380     18383     18384
     18377     18380     18383     18385     18377     18380     18383     18386
     18378     18377     18380     18381     18378     18377     18380     18382
     18378     18377     18380     18383     18379     18377     18380     18381
     18379     18377     18380     18382     18379     18377     18380     18383
     18380     18383     18386     18387     18380     18383     18386     18388
     18380     18383     18386     18389     18381     18380     18383     18384
     18381     18380     18383     18385     18381     18380     18383     18386
     18382     18380     18383     18384     18382     18380     18383     18385
     18382     18380     18383     18386     18384     18383     18386     18387
     18384     18383     18386     18388     18384     18383     18386     18389
     18385     18383     18386     18387     18385     18383     18386     18388
     18385     18383     18386     18389     18390     18393     18396     18397
     18390     18393     18396     18398     18390     18393     18396     18399
     18391     18390     18393     18394     18391     18390     18393     18395
     18391     18390     18393     18396     18392     18390     18393     18394
     18392     18390     18393     18395     18392     18390     18393     18396
     18393     18396     18399     18400     18393     18396     18399     18401
     18393     18396     18399     18402     18394     18393     18396     18397
     18394     18393     18396     18398     18394     18393     18396     18399
     18395     18393     18396     18397     18395     18393     18396     18398
     18395     18393     18396     18399     18396     18399     18402     18403
     18396     18399     18402     18404     18396     18399     18402     18405
     18397     18396     18399     18400     18397     18396     18399     18401
     18397     18396     18399     18402     18398     18396     18399     18400
     18398     18396     18399     18401     18398     18396     18399     18402
     18399     18402     18405     18406     18399     18402     18405     18407
     18399     18402     18405     18408     18400     18399     18402     18403
     18400     18399     18402     18404     18400     18399     18402     18405
     18401     18399     18402     18403     18401     18399     18402     18404
     18401     18399     18402     18405     18402     18405     18408     18409
     18402     18405     18408     18410     18402     18405     18408     18411
     18403     18402     18405     18406     18403     18402     18405     18407
     18403     18402     18405     18408     18404     18402     18405     18406
     18404     18402     18405     18407     18404     18402     18405     18408
     18405     18408     18411     18412     18405     18408     18411     18413
     18405     18408     18411     18414     18406     18405     18408     18409
     18406     18405     18408     18410     18406     18405     18408     18411
     18407     18405     18408     18409     18407     18405     18408     18410
     18407     18405     18408     18411     18408     18411     18414     18415
     18408     18411     18414     18416     18408     18411     18414     18417
     18409     18408     18411     18412     18409     18408     18411     18413
     18409     18408     18411     18414     18410     18408     18411     18412
     18410     18408     18411     18413     18410     18408     18411     18414
     18411     18414     18417     18418     18411     18414     18417     18419
     18411     18414     18417     18420     18412     18411     18414     18415
     18412     18411     18414     18416     18412     18411     18414     18417
     18413     18411     18414     18415     18413     18411     18414     18416
     18413     18411     18414     18417     18414     18417     18420     18421
     18414     18417     18420     18422     18414     18417     18420     18423
     18415     18414     18417     18418     18415     18414     18417     18419
     18415     18414     18417     18420     18416     18414     18417     18418
     18416     18414     18417     18419     18416     18414     18417     18420
     18417     18420     18423     18424     18417     18420     18423     18425
     18417     18420     18423     18426     18418     18417     18420     18421
     18418     18417     18420     18422     18418     18417     18420     18423
     18419     18417     18420     18421     18419     18417     18420     18422
     18419     18417     18420     18423     18420     18423     18426     18427
     18420     18423     18426     18428     18420     18423     18426     18429
     18421     18420     18423     18424     18421     18420     18423     18425
     18421     18420     18423     18426     18422     18420     18423     18424
     18422     18420     18423     18425     18422     18420     18423     18426
     18423     18426     18429     18430     18423     18426     18429     18431
     18423     18426     18429     18432     18424     18423     18426     18427
     18424     18423     18426     18428     18424     18423     18426     18429
     18425     18423     18426     18427     18425     18423     18426     18428
     18425     18423     18426     18429     18427     18426     18429     18430
     18427     18426     18429     18431     18427     18426     18429     18432
     18428     18426     18429     18430     18428     18426     18429     18431
     18428     18426     18429     18432     18433     18437     18440     18441
     18433     18437     18440     18442     18433     18437     18440     18447
     18434     18433     18437     18438     18434     18433     18437     18439
     18434     18433     18437     18440     18435     18433     18437     18438
     18435     18433     18437     18439     18435     18433     18437     18440
     18436     18433     18437     18438     18436     18433     18437     18439
     18436     18433     18437     18440     18437     18440     18447     18443
     18438     18437     18440     18441     18438     18437     18440     18442
     18438     18437     18440     18447     18439     18437     18440     18441
     18439     18437     18440     18442     18439     18437     18440     18447
     18440     18447     18443     18444     18440     18447     18443     18445
     18440     18447     18443     18446     18441     18440     18447     18443
     18442     18440     18447     18443     18443     18446     18448     18449
     18443     18446     18448     18450     18443     18446     18448     18451
     18444     18443     18446     18448     18445     18443     18446     18448
     18446     18448     18451     18452     18446     18448     18451     18453
     18446     18448     18451     18459     18447     18443     18446     18448
     18448     18451     18453     18454     18448     18451     18459     18460
     18448     18451     18459     18461     18448     18451     18459     18462
     18449     18448     18451     18452     18449     18448     18451     18453
     18449     18448     18451     18459     18450     18448     18451     18452
     18450     18448     18451     18453     18450     18448     18451     18459
     18451     18453     18454     18455     18451     18453     18454     18456
     18451     18459     18462     18463     18452     18451     18453     18454
     18452     18451     18459     18460     18452     18451     18459     18461
     18452     18451     18459     18462     18453     18451     18459     18460
     18453     18451     18459     18461     18453     18451     18459     18462
     18453     18454     18456     18457     18453     18454     18456     18458
     18453     18454     18456     18468     18454     18453     18451     18459
     18454     18456     18468     18469     18454     18456     18468     18470
     18454     18456     18468     18471     18455     18454     18456     18457
     18455     18454     18456     18458     18455     18454     18456     18468
     18456     18468     18471     18472     18456     18468     18471     18473
     18456     18468     18471     18474     18457     18456     18468     18469
     18457     18456     18468     18470     18457     18456     18468     18471
     18458     18456     18468     18469     18458     18456     18468     18470
     18458     18456     18468     18471     18459     18462     18463     18464
     18459     18462     18463     18465     18460     18459     18462     18463
     18461     18459     18462     18463     18462     18463     18465     18466
     18462     18463     18465     18467     18462     18463     18465     18512
     18463     18465     18512     18513     18463     18465     18512     18514
     18463     18465     18512     18515     18464     18463     18465     18466
     18464     18463     18465     18467     18464     18463     18465     18512
     18465     18512     18515     18516     18465     18512     18515     18517
     18465     18512     18515     18518     18466     18465     18512     18513
     18466     18465     18512     18514     18466     18465     18512     18515
     18467     18465     18512     18513     18467     18465     18512     18514
     18467     18465     18512     18515     18468     18471     18474     18475
     18468     18471     18474     18476     18468     18471     18474     18477
     18469     18468     18471     18472     18469     18468     18471     18473
     18469     18468     18471     18474     18470     18468     18471     18472
     18470     18468     18471     18473     18470     18468     18471     18474
     18471     18474     18477     18478     18471     18474     18477     18479
     18471     18474     18477     18480     18472     18471     18474     18475
     18472     18471     18474     18476     18472     18471     18474     18477
     18473     18471     18474     18475     18473     18471     18474     18476
     18473     18471     18474     18477     18474     18477     18480     18481
     18474     18477     18480     18482     18474     18477     18480     18483
     18475     18474     18477     18478     18475     18474     18477     18479
     18475     18474     18477     18480     18476     18474     18477     18478
     18476     18474     18477     18479     18476     18474     18477     18480
     18477     18480     18483     18484     18477     18480     18483     18485
     18477     18480     18483     18486     18478     18477     18480     18481
     18478     18477     18480     18482     18478     18477     18480     18483
     18479     18477     18480     18481     18479     18477     18480     18482
     18479     18477     18480     18483     18480     18483     18486     18487
     18480     18483     18486     18488     18480     18483     18486     18491
     18481     18480     18483     18484     18481     18480     18483     18485
     18481     18480     18483     18486     18482     18480     18483     18484
     18482     18480     18483     18485     18482     18480     18483     18486
     18483     18486     18488     18489     18483     18486     18488     18490
     18483     18486     18488     18491     18483     18486     18491     18488
     18483     18486     18491     18492     18483     18486     18491     18493
     18484     18483     18486     18487     18484     18483     18486     18488
     18484     18483     18486     18491     18485     18483     18486     18487
     18485     18483     18486     18488     18485     18483     18486     18491
     18486     18488     18491     18492     18486     18488     18491     18493
     18486     18491     18488     18489     18486     18491     18488     18490
     18486     18491     18493     18494     18486     18491     18493     18495
     18486     18491     18493     18496     18487     18486     18488     18489
     18487     18486     18488     18490     18487     18486     18488     18491
     18487     18486     18491     18488     18487     18486     18491     18492
     18487     18486     18491     18493     18488     18486     18491     18492
     18488     18486     18491     18493     18488     18491     18493     18494
     18488     18491     18493     18495     18488     18491     18493     18496
     18489     18488     18486     18491     18489     18488     18491     18492
     18489     18488     18491     18493     18490     18488     18486     18491
     18490     18488     18491     18492     18490     18488     18491     18493
     18491     18493     18496     18497     18491     18493     18496     18498
     18491     18493     18496     18499     18492     18491     18493     18494
     18492     18491     18493     18495     18492     18491     18493     18496
     18493     18496     18499     18500     18493     18496     18499     18501
     18493     18496     18499     18502     18494     18493     18496     18497
     18494     18493     18496     18498     18494     18493     18496     18499
     18495     18493     18496     18497     18495     18493     18496     18498
     18495     18493     18496     18499     18496     18499     18502     18503
     18496     18499     18502     18504     18496     18499     18502     18505
     18497     18496     18499     18500     18497     18496     18499     18501
     18497     18496     18499     18502     18498     18496     18499     18500
     18498     18496     18499     18501     18498     18496     18499     18502
     18499     18502     18505     18506     18499     18502     18505     18507
     18499     18502     18505     18508     18500     18499     18502     18503
     18500     18499     18502     18504     18500     18499     18502     18505
     18501     18499     18502     18503     18501     18499     18502     18504
     18501     18499     18502     18505     18502     18505     18508     18509
     18502     18505     18508     18510     18502     18505     18508     18511
     18503     18502     18505     18506     18503     18502     18505     18507
     18503     18502     18505     18508     18504     18502     18505     18506
     18504     18502     18505     18507     18504     18502     18505     18508
     18506     18505     18508     18509     18506     18505     18508     18510
     18506     18505     18508     18511     18507     18505     18508     18509
     18507     18505     18508     18510     18507     18505     18508     18511
     18512     18515     18518     18519     18512     18515     18518     18520
     18512     18515     18518     18521     18513     18512     18515     18516
     18513     18512     18515     18517     18513     18512     18515     18518
     18514     18512     18515     18516     18514     18512     18515     18517
     18514     18512     18515     18518     18515     18518     18521     18522
     18515     18518     18521     18523     18515     18518     18521     18524
     18516     18515     18518     18519     18516     18515     18518     18520
     18516     18515     18518     18521     18517     18515     18518     18519
     18517     18515     18518     18520     18517     18515     18518     18521
     18518     18521     18524     18525     18518     18521     18524     18526
     18518     18521     18524     18527     18519     18518     18521     18522
     18519     18518     18521     18523     18519     18518     18521     18524
     18520     18518     18521     18522     18520     18518     18521     18523
     18520     18518     18521     18524     18521     18524     18527     18528
     18521     18524     18527     18529     18521     18524     18527     18530
     18522     18521     18524     18525     18522     18521     18524     18526
     18522     18521     18524     18527     18523     18521     18524     18525
     18523     18521     18524     18526     18523     18521     18524     18527
     18524     18527     18530     18531     18524     18527     18530     18532
     18524     18527     18530     18533     18525     18524     18527     18528
     18525     18524     18527     18529     18525     18524     18527     18530
     18526     18524     18527     18528     18526     18524     18527     18529
     18526     18524     18527     18530     18527     18530     18533     18534
     18527     18530     18533     18535     18527     18530     18533     18536
     18528     18527     18530     18531     18528     18527     18530     18532
     18528     18527     18530     18533     18529     18527     18530     18531
     18529     18527     18530     18532     18529     18527     18530     18533
     18530     18533     18536     18537     18530     18533     18536     18538
     18530     18533     18536     18539     18531     18530     18533     18534
     18531     18530     18533     18535     18531     18530     18533     18536
     18532     18530     18533     18534     18532     18530     18533     18535
     18532     18530     18533     18536     18533     18536     18539     18540
     18533     18536     18539     18541     18533     18536     18539     18542
     18534     18533     18536     18537     18534     18533     18536     18538
     18534     18533     18536     18539     18535     18533     18536     18537
     18535     18533     18536     18538     18535     18533     18536     18539
     18536     18539     18542     18543     18536     18539     18542     18544
     18536     18539     18542     18545     18537     18536     18539     18540
     18537     18536     18539     18541     18537     18536     18539     18542
     18538     18536     18539     18540     18538     18536     18539     18541
     18538     18536     18539     18542     18539     18542     18545     18546
     18539     18542     18545     18547     18539     18542     18545     18548
     18540     18539     18542     18543     18540     18539     18542     18544
     18540     18539     18542     18545     18541     18539     18542     18543
     18541     18539     18542     18544     18541     18539     18542     18545
     18542     18545     18548     18549     18542     18545     18548     18550
     18542     18545     18548     18551     18543     18542     18545     18546
     18543     18542     18545     18547     18543     18542     18545     18548
     18544     18542     18545     18546     18544     18542     18545     18547
     18544     18542     18545     18548     18545     18548     18551     18552
     18545     18548     18551     18553     18545     18548     18551     18554
     18546     18545     18548     18549     18546     18545     18548     18550
     18546     18545     18548     18551     18547     18545     18548     18549
     18547     18545     18548     18550     18547     18545     18548     18551
     18549     18548     18551     18552     18549     18548     18551     18553
     18549     18548     18551     18554     18550     18548     18551     18552
     18550     18548     18551     18553     18550     18548     18551     18554
     18555     18559     18562     18563     18555     18559     18562     18564
     18555     18559     18562     18569     18556     18555     18559     18560
     18556     18555     18559     18561     18556     18555     18559     18562
     18557     18555     18559     18560     18557     18555     18559     18561
     18557     18555     18559     18562     18558     18555     18559     18560
     18558     18555     18559     18561     18558     18555     18559     18562
     18559     18562     18569     18565     18560     18559     18562     18563
     18560     18559     18562     18564     18560     18559     18562     18569
     18561     18559     18562     18563     18561     18559     18562     18564
     18561     18559     18562     18569     18562     18569     18565     18566
     18562     18569     18565     18567     18562     18569     18565     18568
     18563     18562     18569     18565     18564     18562     18569     18565
     18565     18568     18570     18571     18565     18568     18570     18572
     18565     18568     18570     18573     18566     18565     18568     18570
     18567     18565     18568     18570     18568     18570     18573     18574
     18568     18570     18573     18575     18568     18570     18573     18581
     18569     18565     18568     18570     18570     18573     18575     18576
     18570     18573     18581     18582     18570     18573     18581     18583
     18570     18573     18581     18584     18571     18570     18573     18574
     18571     18570     18573     18575     18571     18570     18573     18581
     18572     18570     18573     18574     18572     18570     18573     18575
     18572     18570     18573     18581     18573     18575     18576     18577
     18573     18575     18576     18578     18573     18581     18584     18585
     18574     18573     18575     18576     18574     18573     18581     18582
     18574     18573     18581     18583     18574     18573     18581     18584
     18575     18573     18581     18582     18575     18573     18581     18583
     18575     18573     18581     18584     18575     18576     18578     18579
     18575     18576     18578     18580     18575     18576     18578     18590
     18576     18575     18573     18581     18576     18578     18590     18591
     18576     18578     18590     18592     18576     18578     18590     18593
     18577     18576     18578     18579     18577     18576     18578     18580
     18577     18576     18578     18590     18578     18590     18593     18594
     18578     18590     18593     18595     18578     18590     18593     18596
     18579     18578     18590     18591     18579     18578     18590     18592
     18579     18578     18590     18593     18580     18578     18590     18591
     18580     18578     18590     18592     18580     18578     18590     18593
     18581     18584     18585     18586     18581     18584     18585     18587
     18582     18581     18584     18585     18583     18581     18584     18585
     18584     18585     18587     18588     18584     18585     18587     18589
     18584     18585     18587     18634     18585     18587     18634     18635
     18585     18587     18634     18636     18585     18587     18634     18637
     18586     18585     18587     18588     18586     18585     18587     18589
     18586     18585     18587     18634     18587     18634     18637     18638
     18587     18634     18637     18639     18587     18634     18637     18640
     18588     18587     18634     18635     18588     18587     18634     18636
     18588     18587     18634     18637     18589     18587     18634     18635
     18589     18587     18634     18636     18589     18587     18634     18637
     18590     18593     18596     18597     18590     18593     18596     18598
     18590     18593     18596     18599     18591     18590     18593     18594
     18591     18590     18593     18595     18591     18590     18593     18596
     18592     18590     18593     18594     18592     18590     18593     18595
     18592     18590     18593     18596     18593     18596     18599     18600
     18593     18596     18599     18601     18593     18596     18599     18602
     18594     18593     18596     18597     18594     18593     18596     18598
     18594     18593     18596     18599     18595     18593     18596     18597
     18595     18593     18596     18598     18595     18593     18596     18599
     18596     18599     18602     18603     18596     18599     18602     18604
     18596     18599     18602     18605     18597     18596     18599     18600
     18597     18596     18599     18601     18597     18596     18599     18602
     18598     18596     18599     18600     18598     18596     18599     18601
     18598     18596     18599     18602     18599     18602     18605     18606
     18599     18602     18605     18607     18599     18602     18605     18608
     18600     18599     18602     18603     18600     18599     18602     18604
     18600     18599     18602     18605     18601     18599     18602     18603
     18601     18599     18602     18604     18601     18599     18602     18605
     18602     18605     18608     18609     18602     18605     18608     18610
     18602     18605     18608     18613     18603     18602     18605     18606
     18603     18602     18605     18607     18603     18602     18605     18608
     18604     18602     18605     18606     18604     18602     18605     18607
     18604     18602     18605     18608     18605     18608     18610     18611
     18605     18608     18610     18612     18605     18608     18610     18613
     18605     18608     18613     18610     18605     18608     18613     18614
     18605     18608     18613     18615     18606     18605     18608     18609
     18606     18605     18608     18610     18606     18605     18608     18613
     18607     18605     18608     18609     18607     18605     18608     18610
     18607     18605     18608     18613     18608     18610     18613     18614
     18608     18610     18613     18615     18608     18613     18610     18611
     18608     18613     18610     18612     18608     18613     18615     18616
     18608     18613     18615     18617     18608     18613     18615     18618
     18609     18608     18610     18611     18609     18608     18610     18612
     18609     18608     18610     18613     18609     18608     18613     18610
     18609     18608     18613     18614     18609     18608     18613     18615
     18610     18608     18613     18614     18610     18608     18613     18615
     18610     18613     18615     18616     18610     18613     18615     18617
     18610     18613     18615     18618     18611     18610     18608     18613
     18611     18610     18613     18614     18611     18610     18613     18615
     18612     18610     18608     18613     18612     18610     18613     18614
     18612     18610     18613     18615     18613     18615     18618     18619
     18613     18615     18618     18620     18613     18615     18618     18621
     18614     18613     18615     18616     18614     18613     18615     18617
     18614     18613     18615     18618     18615     18618     18621     18622
     18615     18618     18621     18623     18615     18618     18621     18624
     18616     18615     18618     18619     18616     18615     18618     18620
     18616     18615     18618     18621     18617     18615     18618     18619
     18617     18615     18618     18620     18617     18615     18618     18621
     18618     18621     18624     18625     18618     18621     18624     18626
     18618     18621     18624     18627     18619     18618     18621     18622
     18619     18618     18621     18623     18619     18618     18621     18624
     18620     18618     18621     18622     18620     18618     18621     18623
     18620     18618     18621     18624     18621     18624     18627     18628
     18621     18624     18627     18629     18621     18624     18627     18630
     18622     18621     18624     18625     18622     18621     18624     18626
     18622     18621     18624     18627     18623     18621     18624     18625
     18623     18621     18624     18626     18623     18621     18624     18627
     18624     18627     18630     18631     18624     18627     18630     18632
     18624     18627     18630     18633     18625     18624     18627     18628
     18625     18624     18627     18629     18625     18624     18627     18630
     18626     18624     18627     18628     18626     18624     18627     18629
     18626     18624     18627     18630     18628     18627     18630     18631
     18628     18627     18630     18632     18628     18627     18630     18633
     18629     18627     18630     18631     18629     18627     18630     18632
     18629     18627     18630     18633     18634     18637     18640     18641
     18634     18637     18640     18642     18634     18637     18640     18643
     18635     18634     18637     18638     18635     18634     18637     18639
     18635     18634     18637     18640     18636     18634     18637     18638
     18636     18634     18637     18639     18636     18634     18637     18640
     18637     18640     18643     18644     18637     18640     18643     18645
     18637     18640     18643     18646     18638     18637     18640     18641
     18638     18637     18640     18642     18638     18637     18640     18643
     18639     18637     18640     18641     18639     18637     18640     18642
     18639     18637     18640     18643     18640     18643     18646     18647
     18640     18643     18646     18648     18640     18643     18646     18649
     18641     18640     18643     18644     18641     18640     18643     18645
     18641     18640     18643     18646     18642     18640     18643     18644
     18642     18640     18643     18645     18642     18640     18643     18646
     18643     18646     18649     18650     18643     18646     18649     18651
     18643     18646     18649     18652     18644     18643     18646     18647
     18644     18643     18646     18648     18644     18643     18646     18649
     18645     18643     18646     18647     18645     18643     18646     18648
     18645     18643     18646     18649     18646     18649     18652     18653
     18646     18649     18652     18654     18646     18649     18652     18655
     18647     18646     18649     18650     18647     18646     18649     18651
     18647     18646     18649     18652     18648     18646     18649     18650
     18648     18646     18649     18651     18648     18646     18649     18652
     18649     18652     18655     18656     18649     18652     18655     18657
     18649     18652     18655     18658     18650     18649     18652     18653
     18650     18649     18652     18654     18650     18649     18652     18655
     18651     18649     18652     18653     18651     18649     18652     18654
     18651     18649     18652     18655     18652     18655     18658     18659
     18652     18655     18658     18660     18652     18655     18658     18661
     18653     18652     18655     18656     18653     18652     18655     18657
     18653     18652     18655     18658     18654     18652     18655     18656
     18654     18652     18655     18657     18654     18652     18655     18658
     18655     18658     18661     18662     18655     18658     18661     18663
     18655     18658     18661     18664     18656     18655     18658     18659
     18656     18655     18658     18660     18656     18655     18658     18661
     18657     18655     18658     18659     18657     18655     18658     18660
     18657     18655     18658     18661     18658     18661     18664     18665
     18658     18661     18664     18666     18658     18661     18664     18667
     18659     18658     18661     18662     18659     18658     18661     18663
     18659     18658     18661     18664     18660     18658     18661     18662
     18660     18658     18661     18663     18660     18658     18661     18664
     18661     18664     18667     18668     18661     18664     18667     18669
     18661     18664     18667     18670     18662     18661     18664     18665
     18662     18661     18664     18666     18662     18661     18664     18667
     18663     18661     18664     18665     18663     18661     18664     18666
     18663     18661     18664     18667     18664     18667     18670     18671
     18664     18667     18670     18672     18664     18667     18670     18673
     18665     18664     18667     18668     18665     18664     18667     18669
     18665     18664     18667     18670     18666     18664     18667     18668
     18666     18664     18667     18669     18666     18664     18667     18670
     18667     18670     18673     18674     18667     18670     18673     18675
     18667     18670     18673     18676     18668     18667     18670     18671
     18668     18667     18670     18672     18668     18667     18670     18673
     18669     18667     18670     18671     18669     18667     18670     18672
     18669     18667     18670     18673     18671     18670     18673     18674
     18671     18670     18673     18675     18671     18670     18673     18676
     18672     18670     18673     18674     18672     18670     18673     18675
     18672     18670     18673     18676     18677     18681     18684     18685
     18677     18681     18684     18686     18677     18681     18684     18691
     18678     18677     18681     18682     18678     18677     18681     18683
     18678     18677     18681     18684     18679     18677     18681     18682
     18679     18677     18681     18683     18679     18677     18681     18684
     18680     18677     18681     18682     18680     18677     18681     18683
     18680     18677     18681     18684     18681     18684     18691     18687
     18682     18681     18684     18685     18682     18681     18684     18686
     18682     18681     18684     18691     18683     18681     18684     18685
     18683     18681     18684     18686     18683     18681     18684     18691
     18684     18691     18687     18688     18684     18691     18687     18689
     18684     18691     18687     18690     18685     18684     18691     18687
     18686     18684     18691     18687     18687     18690     18692     18693
     18687     18690     18692     18694     18687     18690     18692     18695
     18688     18687     18690     18692     18689     18687     18690     18692
     18690     18692     18695     18696     18690     18692     18695     18697
     18690     18692     18695     18703     18691     18687     18690     18692
     18692     18695     18697     18698     18692     18695     18703     18704
     18692     18695     18703     18705     18692     18695     18703     18706
     18693     18692     18695     18696     18693     18692     18695     18697
     18693     18692     18695     18703     18694     18692     18695     18696
     18694     18692     18695     18697     18694     18692     18695     18703
     18695     18697     18698     18699     18695     18697     18698     18700
     18695     18703     18706     18707     18696     18695     18697     18698
     18696     18695     18703     18704     18696     18695     18703     18705
     18696     18695     18703     18706     18697     18695     18703     18704
     18697     18695     18703     18705     18697     18695     18703     18706
     18697     18698     18700     18701     18697     18698     18700     18702
     18697     18698     18700     18712     18698     18697     18695     18703
     18698     18700     18712     18713     18698     18700     18712     18714
     18698     18700     18712     18715     18699     18698     18700     18701
     18699     18698     18700     18702     18699     18698     18700     18712
     18700     18712     18715     18716     18700     18712     18715     18717
     18700     18712     18715     18718     18701     18700     18712     18713
     18701     18700     18712     18714     18701     18700     18712     18715
     18702     18700     18712     18713     18702     18700     18712     18714
     18702     18700     18712     18715     18703     18706     18707     18708
     18703     18706     18707     18709     18704     18703     18706     18707
     18705     18703     18706     18707     18706     18707     18709     18710
     18706     18707     18709     18711     18706     18707     18709     18756
     18707     18709     18756     18757     18707     18709     18756     18758
     18707     18709     18756     18759     18708     18707     18709     18710
     18708     18707     18709     18711     18708     18707     18709     18756
     18709     18756     18759     18760     18709     18756     18759     18761
     18709     18756     18759     18762     18710     18709     18756     18757
     18710     18709     18756     18758     18710     18709     18756     18759
     18711     18709     18756     18757     18711     18709     18756     18758
     18711     18709     18756     18759     18712     18715     18718     18719
     18712     18715     18718     18720     18712     18715     18718     18721
     18713     18712     18715     18716     18713     18712     18715     18717
     18713     18712     18715     18718     18714     18712     18715     18716
     18714     18712     18715     18717     18714     18712     18715     18718
     18715     18718     18721     18722     18715     18718     18721     18723
     18715     18718     18721     18724     18716     18715     18718     18719
     18716     18715     18718     18720     18716     18715     18718     18721
     18717     18715     18718     18719     18717     18715     18718     18720
     18717     18715     18718     18721     18718     18721     18724     18725
     18718     18721     18724     18726     18718     18721     18724     18727
     18719     18718     18721     18722     18719     18718     18721     18723
     18719     18718     18721     18724     18720     18718     18721     18722
     18720     18718     18721     18723     18720     18718     18721     18724
     18721     18724     18727     18728     18721     18724     18727     18729
     18721     18724     18727     18730     18722     18721     18724     18725
     18722     18721     18724     18726     18722     18721     18724     18727
     18723     18721     18724     18725     18723     18721     18724     18726
     18723     18721     18724     18727     18724     18727     18730     18731
     18724     18727     18730     18732     18724     18727     18730     18735
     18725     18724     18727     18728     18725     18724     18727     18729
     18725     18724     18727     18730     18726     18724     18727     18728
     18726     18724     18727     18729     18726     18724     18727     18730
     18727     18730     18732     18733     18727     18730     18732     18734
     18727     18730     18732     18735     18727     18730     18735     18732
     18727     18730     18735     18736     18727     18730     18735     18737
     18728     18727     18730     18731     18728     18727     18730     18732
     18728     18727     18730     18735     18729     18727     18730     18731
     18729     18727     18730     18732     18729     18727     18730     18735
     18730     18732     18735     18736     18730     18732     18735     18737
     18730     18735     18732     18733     18730     18735     18732     18734
     18730     18735     18737     18738     18730     18735     18737     18739
     18730     18735     18737     18740     18731     18730     18732     18733
     18731     18730     18732     18734     18731     18730     18732     18735
     18731     18730     18735     18732     18731     18730     18735     18736
     18731     18730     18735     18737     18732     18730     18735     18736
     18732     18730     18735     18737     18732     18735     18737     18738
     18732     18735     18737     18739     18732     18735     18737     18740
     18733     18732     18730     18735     18733     18732     18735     18736
     18733     18732     18735     18737     18734     18732     18730     18735
     18734     18732     18735     18736     18734     18732     18735     18737
     18735     18737     18740     18741     18735     18737     18740     18742
     18735     18737     18740     18743     18736     18735     18737     18738
     18736     18735     18737     18739     18736     18735     18737     18740
     18737     18740     18743     18744     18737     18740     18743     18745
     18737     18740     18743     18746     18738     18737     18740     18741
     18738     18737     18740     18742     18738     18737     18740     18743
     18739     18737     18740     18741     18739     18737     18740     18742
     18739     18737     18740     18743     18740     18743     18746     18747
     18740     18743     18746     18748     18740     18743     18746     18749
     18741     18740     18743     18744     18741     18740     18743     18745
     18741     18740     18743     18746     18742     18740     18743     18744
     18742     18740     18743     18745     18742     18740     18743     18746
     18743     18746     18749     18750     18743     18746     18749     18751
     18743     18746     18749     18752     18744     18743     18746     18747
     18744     18743     18746     18748     18744     18743     18746     18749
     18745     18743     18746     18747     18745     18743     18746     18748
     18745     18743     18746     18749     18746     18749     18752     18753
     18746     18749     18752     18754     18746     18749     18752     18755
     18747     18746     18749     18750     18747     18746     18749     18751
     18747     18746     18749     18752     18748     18746     18749     18750
     18748     18746     18749     18751     18748     18746     18749     18752
     18750     18749     18752     18753     18750     18749     18752     18754
     18750     18749     18752     18755     18751     18749     18752     18753
     18751     18749     18752     18754     18751     18749     18752     18755
     18756     18759     18762     18763     18756     18759     18762     18764
     18756     18759     18762     18765     18757     18756     18759     18760
     18757     18756     18759     18761     18757     18756     18759     18762
     18758     18756     18759     18760     18758     18756     18759     18761
     18758     18756     18759     18762     18759     18762     18765     18766
     18759     18762     18765     18767     18759     18762     18765     18768
     18760     18759     18762     18763     18760     18759     18762     18764
     18760     18759     18762     18765     18761     18759     18762     18763
     18761     18759     18762     18764     18761     18759     18762     18765
     18762     18765     18768     18769     18762     18765     18768     18770
     18762     18765     18768     18771     18763     18762     18765     18766
     18763     18762     18765     18767     18763     18762     18765     18768
     18764     18762     18765     18766     18764     18762     18765     18767
     18764     18762     18765     18768     18765     18768     18771     18772
     18765     18768     18771     18773     18765     18768     18771     18774
     18766     18765     18768     18769     18766     18765     18768     18770
     18766     18765     18768     18771     18767     18765     18768     18769
     18767     18765     18768     18770     18767     18765     18768     18771
     18768     18771     18774     18775     18768     18771     18774     18776
     18768     18771     18774     18777     18769     18768     18771     18772
     18769     18768     18771     18773     18769     18768     18771     18774
     18770     18768     18771     18772     18770     18768     18771     18773
     18770     18768     18771     18774     18771     18774     18777     18778
     18771     18774     18777     18779     18771     18774     18777     18780
     18772     18771     18774     18775     18772     18771     18774     18776
     18772     18771     18774     18777     18773     18771     18774     18775
     18773     18771     18774     18776     18773     18771     18774     18777
     18774     18777     18780     18781     18774     18777     18780     18782
     18774     18777     18780     18783     18775     18774     18777     18778
     18775     18774     18777     18779     18775     18774     18777     18780
     18776     18774     18777     18778     18776     18774     18777     18779
     18776     18774     18777     18780     18777     18780     18783     18784
     18777     18780     18783     18785     18777     18780     18783     18786
     18778     18777     18780     18781     18778     18777     18780     18782
     18778     18777     18780     18783     18779     18777     18780     18781
     18779     18777     18780     18782     18779     18777     18780     18783
     18780     18783     18786     18787     18780     18783     18786     18788
     18780     18783     18786     18789     18781     18780     18783     18784
     18781     18780     18783     18785     18781     18780     18783     18786
     18782     18780     18783     18784     18782     18780     18783     18785
     18782     18780     18783     18786     18783     18786     18789     18790
     18783     18786     18789     18791     18783     18786     18789     18792
     18784     18783     18786     18787     18784     18783     18786     18788
     18784     18783     18786     18789     18785     18783     18786     18787
     18785     18783     18786     18788     18785     18783     18786     18789
     18786     18789     18792     18793     18786     18789     18792     18794
     18786     18789     18792     18795     18787     18786     18789     18790
     18787     18786     18789     18791     18787     18786     18789     18792
     18788     18786     18789     18790     18788     18786     18789     18791
     18788     18786     18789     18792     18789     18792     18795     18796
     18789     18792     18795     18797     18789     18792     18795     18798
     18790     18789     18792     18793     18790     18789     18792     18794
     18790     18789     18792     18795     18791     18789     18792     18793
     18791     18789     18792     18794     18791     18789     18792     18795
     18793     18792     18795     18796     18793     18792     18795     18797
     18793     18792     18795     18798     18794     18792     18795     18796
     18794     18792     18795     18797     18794     18792     18795     18798
     18799     18803     18806     18807     18799     18803     18806     18808
     18799     18803     18806     18813     18800     18799     18803     18804
     18800     18799     18803     18805     18800     18799     18803     18806
     18801     18799     18803     18804     18801     18799     18803     18805
     18801     18799     18803     18806     18802     18799     18803     18804
     18802     18799     18803     18805     18802     18799     18803     18806
     18803     18806     18813     18809     18804     18803     18806     18807
     18804     18803     18806     18808     18804     18803     18806     18813
     18805     18803     18806     18807     18805     18803     18806     18808
     18805     18803     18806     18813     18806     18813     18809     18810
     18806     18813     18809     18811     18806     18813     18809     18812
     18807     18806     18813     18809     18808     18806     18813     18809
     18809     18812     18814     18815     18809     18812     18814     18816
     18809     18812     18814     18817     18810     18809     18812     18814
     18811     18809     18812     18814     18812     18814     18817     18818
     18812     18814     18817     18819     18812     18814     18817     18825
     18813     18809     18812     18814     18814     18817     18819     18820
     18814     18817     18825     18826     18814     18817     18825     18827
     18814     18817     18825     18828     18815     18814     18817     18818
     18815     18814     18817     18819     18815     18814     18817     18825
     18816     18814     18817     18818     18816     18814     18817     18819
     18816     18814     18817     18825     18817     18819     18820     18821
     18817     18819     18820     18822     18817     18825     18828     18829
     18818     18817     18819     18820     18818     18817     18825     18826
     18818     18817     18825     18827     18818     18817     18825     18828
     18819     18817     18825     18826     18819     18817     18825     18827
     18819     18817     18825     18828     18819     18820     18822     18823
     18819     18820     18822     18824     18819     18820     18822     18834
     18820     18819     18817     18825     18820     18822     18834     18835
     18820     18822     18834     18836     18820     18822     18834     18837
     18821     18820     18822     18823     18821     18820     18822     18824
     18821     18820     18822     18834     18822     18834     18837     18838
     18822     18834     18837     18839     18822     18834     18837     18840
     18823     18822     18834     18835     18823     18822     18834     18836
     18823     18822     18834     18837     18824     18822     18834     18835
     18824     18822     18834     18836     18824     18822     18834     18837
     18825     18828     18829     18830     18825     18828     18829     18831
     18826     18825     18828     18829     18827     18825     18828     18829
     18828     18829     18831     18832     18828     18829     18831     18833
     18828     18829     18831     18878     18829     18831     18878     18879
     18829     18831     18878     18880     18829     18831     18878     18881
     18830     18829     18831     18832     18830     18829     18831     18833
     18830     18829     18831     18878     18831     18878     18881     18882
     18831     18878     18881     18883     18831     18878     18881     18884
     18832     18831     18878     18879     18832     18831     18878     18880
     18832     18831     18878     18881     18833     18831     18878     18879
     18833     18831     18878     18880     18833     18831     18878     18881
     18834     18837     18840     18841     18834     18837     18840     18842
     18834     18837     18840     18843     18835     18834     18837     18838
     18835     18834     18837     18839     18835     18834     18837     18840
     18836     18834     18837     18838     18836     18834     18837     18839
     18836     18834     18837     18840     18837     18840     18843     18844
     18837     18840     18843     18845     18837     18840     18843     18846
     18838     18837     18840     18841     18838     18837     18840     18842
     18838     18837     18840     18843     18839     18837     18840     18841
     18839     18837     18840     18842     18839     18837     18840     18843
     18840     18843     18846     18847     18840     18843     18846     18848
     18840     18843     18846     18849     18841     18840     18843     18844
     18841     18840     18843     18845     18841     18840     18843     18846
     18842     18840     18843     18844     18842     18840     18843     18845
     18842     18840     18843     18846     18843     18846     18849     18850
     18843     18846     18849     18851     18843     18846     18849     18852
     18844     18843     18846     18847     18844     18843     18846     18848
     18844     18843     18846     18849     18845     18843     18846     18847
     18845     18843     18846     18848     18845     18843     18846     18849
     18846     18849     18852     18853     18846     18849     18852     18854
     18846     18849     18852     18857     18847     18846     18849     18850
     18847     18846     18849     18851     18847     18846     18849     18852
     18848     18846     18849     18850     18848     18846     18849     18851
     18848     18846     18849     18852     18849     18852     18854     18855
     18849     18852     18854     18856     18849     18852     18854     18857
     18849     18852     18857     18854     18849     18852     18857     18858
     18849     18852     18857     18859     18850     18849     18852     18853
     18850     18849     18852     18854     18850     18849     18852     18857
     18851     18849     18852     18853     18851     18849     18852     18854
     18851     18849     18852     18857     18852     18854     18857     18858
     18852     18854     18857     18859     18852     18857     18854     18855
     18852     18857     18854     18856     18852     18857     18859     18860
     18852     18857     18859     18861     18852     18857     18859     18862
     18853     18852     18854     18855     18853     18852     18854     18856
     18853     18852     18854     18857     18853     18852     18857     18854
     18853     18852     18857     18858     18853     18852     18857     18859
     18854     18852     18857     18858     18854     18852     18857     18859
     18854     18857     18859     18860     18854     18857     18859     18861
     18854     18857     18859     18862     18855     18854     18852     18857
     18855     18854     18857     18858     18855     18854     18857     18859
     18856     18854     18852     18857     18856     18854     18857     18858
     18856     18854     18857     18859     18857     18859     18862     18863
     18857     18859     18862     18864     18857     18859     18862     18865
     18858     18857     18859     18860     18858     18857     18859     18861
     18858     18857     18859     18862     18859     18862     18865     18866
     18859     18862     18865     18867     18859     18862     18865     18868
     18860     18859     18862     18863     18860     18859     18862     18864
     18860     18859     18862     18865     18861     18859     18862     18863
     18861     18859     18862     18864     18861     18859     18862     18865
     18862     18865     18868     18869     18862     18865     18868     18870
     18862     18865     18868     18871     18863     18862     18865     18866
     18863     18862     18865     18867     18863     18862     18865     18868
     18864     18862     18865     18866     18864     18862     18865     18867
     18864     18862     18865     18868     18865     18868     18871     18872
     18865     18868     18871     18873     18865     18868     18871     18874
     18866     18865     18868     18869     18866     18865     18868     18870
     18866     18865     18868     18871     18867     18865     18868     18869
     18867     18865     18868     18870     18867     18865     18868     18871
     18868     18871     18874     18875     18868     18871     18874     18876
     18868     18871     18874     18877     18869     18868     18871     18872
     18869     18868     18871     18873     18869     18868     18871     18874
     18870     18868     18871     18872     18870     18868     18871     18873
     18870     18868     18871     18874     18872     18871     18874     18875
     18872     18871     18874     18876     18872     18871     18874     18877
     18873     18871     18874     18875     18873     18871     18874     18876
     18873     18871     18874     18877     18878     18881     18884     18885
     18878     18881     18884     18886     18878     18881     18884     18887
     18879     18878     18881     18882     18879     18878     18881     18883
     18879     18878     18881     18884     18880     18878     18881     18882
     18880     18878     18881     18883     18880     18878     18881     18884
     18881     18884     18887     18888     18881     18884     18887     18889
     18881     18884     18887     18890     18882     18881     18884     18885
     18882     18881     18884     18886     18882     18881     18884     18887
     18883     18881     18884     18885     18883     18881     18884     18886
     18883     18881     18884     18887     18884     18887     18890     18891
     18884     18887     18890     18892     18884     18887     18890     18893
     18885     18884     18887     18888     18885     18884     18887     18889
     18885     18884     18887     18890     18886     18884     18887     18888
     18886     18884     18887     18889     18886     18884     18887     18890
     18887     18890     18893     18894     18887     18890     18893     18895
     18887     18890     18893     18896     18888     18887     18890     18891
     18888     18887     18890     18892     18888     18887     18890     18893
     18889     18887     18890     18891     18889     18887     18890     18892
     18889     18887     18890     18893     18890     18893     18896     18897
     18890     18893     18896     18898     18890     18893     18896     18899
     18891     18890     18893     18894     18891     18890     18893     18895
     18891     18890     18893     18896     18892     18890     18893     18894
     18892     18890     18893     18895     18892     18890     18893     18896
     18893     18896     18899     18900     18893     18896     18899     18901
     18893     18896     18899     18902     18894     18893     18896     18897
     18894     18893     18896     18898     18894     18893     18896     18899
     18895     18893     18896     18897     18895     18893     18896     18898
     18895     18893     18896     18899     18896     18899     18902     18903
     18896     18899     18902     18904     18896     18899     18902     18905
     18897     18896     18899     18900     18897     18896     18899     18901
     18897     18896     18899     18902     18898     18896     18899     18900
     18898     18896     18899     18901     18898     18896     18899     18902
     18899     18902     18905     18906     18899     18902     18905     18907
     18899     18902     18905     18908     18900     18899     18902     18903
     18900     18899     18902     18904     18900     18899     18902     18905
     18901     18899     18902     18903     18901     18899     18902     18904
     18901     18899     18902     18905     18902     18905     18908     18909
     18902     18905     18908     18910     18902     18905     18908     18911
     18903     18902     18905     18906     18903     18902     18905     18907
     18903     18902     18905     18908     18904     18902     18905     18906
     18904     18902     18905     18907     18904     18902     18905     18908
     18905     18908     18911     18912     18905     18908     18911     18913
     18905     18908     18911     18914     18906     18905     18908     18909
     18906     18905     18908     18910     18906     18905     18908     18911
     18907     18905     18908     18909     18907     18905     18908     18910
     18907     18905     18908     18911     18908     18911     18914     18915
     18908     18911     18914     18916     18908     18911     18914     18917
     18909     18908     18911     18912     18909     18908     18911     18913
     18909     18908     18911     18914     18910     18908     18911     18912
     18910     18908     18911     18913     18910     18908     18911     18914
     18911     18914     18917     18918     18911     18914     18917     18919
     18911     18914     18917     18920     18912     18911     18914     18915
     18912     18911     18914     18916     18912     18911     18914     18917
     18913     18911     18914     18915     18913     18911     18914     18916
     18913     18911     18914     18917     18915     18914     18917     18918
     18915     18914     18917     18919     18915     18914     18917     18920
     18916     18914     18917     18918     18916     18914     18917     18919
     18916     18914     18917     18920     18921     18925     18928     18929
     18921     18925     18928     18930     18921     18925     18928     18935
     18922     18921     18925     18926     18922     18921     18925     18927
     18922     18921     18925     18928     18923     18921     18925     18926
     18923     18921     18925     18927     18923     18921     18925     18928
     18924     18921     18925     18926     18924     18921     18925     18927
     18924     18921     18925     18928     18925     18928     18935     18931
     18926     18925     18928     18929     18926     18925     18928     18930
     18926     18925     18928     18935     18927     18925     18928     18929
     18927     18925     18928     18930     18927     18925     18928     18935
     18928     18935     18931     18932     18928     18935     18931     18933
     18928     18935     18931     18934     18929     18928     18935     18931
     18930     18928     18935     18931     18931     18934     18936     18937
     18931     18934     18936     18938     18931     18934     18936     18939
     18932     18931     18934     18936     18933     18931     18934     18936
     18934     18936     18939     18940     18934     18936     18939     18941
     18934     18936     18939     18947     18935     18931     18934     18936
     18936     18939     18941     18942     18936     18939     18947     18948
     18936     18939     18947     18949     18936     18939     18947     18950
     18937     18936     18939     18940     18937     18936     18939     18941
     18937     18936     18939     18947     18938     18936     18939     18940
     18938     18936     18939     18941     18938     18936     18939     18947
     18939     18941     18942     18943     18939     18941     18942     18944
     18939     18947     18950     18951     18940     18939     18941     18942
     18940     18939     18947     18948     18940     18939     18947     18949
     18940     18939     18947     18950     18941     18939     18947     18948
     18941     18939     18947     18949     18941     18939     18947     18950
     18941     18942     18944     18945     18941     18942     18944     18946
     18941     18942     18944     18956     18942     18941     18939     18947
     18942     18944     18956     18957     18942     18944     18956     18958
     18942     18944     18956     18959     18943     18942     18944     18945
     18943     18942     18944     18946     18943     18942     18944     18956
     18944     18956     18959     18960     18944     18956     18959     18961
     18944     18956     18959     18962     18945     18944     18956     18957
     18945     18944     18956     18958     18945     18944     18956     18959
     18946     18944     18956     18957     18946     18944     18956     18958
     18946     18944     18956     18959     18947     18950     18951     18952
     18947     18950     18951     18953     18948     18947     18950     18951
     18949     18947     18950     18951     18950     18951     18953     18954
     18950     18951     18953     18955     18950     18951     18953     19000
     18951     18953     19000     19001     18951     18953     19000     19002
     18951     18953     19000     19003     18952     18951     18953     18954
     18952     18951     18953     18955     18952     18951     18953     19000
     18953     19000     19003     19004     18953     19000     19003     19005
     18953     19000     19003     19006     18954     18953     19000     19001
     18954     18953     19000     19002     18954     18953     19000     19003
     18955     18953     19000     19001     18955     18953     19000     19002
     18955     18953     19000     19003     18956     18959     18962     18963
     18956     18959     18962     18964     18956     18959     18962     18965
     18957     18956     18959     18960     18957     18956     18959     18961
     18957     18956     18959     18962     18958     18956     18959     18960
     18958     18956     18959     18961     18958     18956     18959     18962
     18959     18962     18965     18966     18959     18962     18965     18967
     18959     18962     18965     18968     18960     18959     18962     18963
     18960     18959     18962     18964     18960     18959     18962     18965
     18961     18959     18962     18963     18961     18959     18962     18964
     18961     18959     18962     18965     18962     18965     18968     18969
     18962     18965     18968     18970     18962     18965     18968     18971
     18963     18962     18965     18966     18963     18962     18965     18967
     18963     18962     18965     18968     18964     18962     18965     18966
     18964     18962     18965     18967     18964     18962     18965     18968
     18965     18968     18971     18972     18965     18968     18971     18973
     18965     18968     18971     18974     18966     18965     18968     18969
     18966     18965     18968     18970     18966     18965     18968     18971
     18967     18965     18968     18969     18967     18965     18968     18970
     18967     18965     18968     18971     18968     18971     18974     18975
     18968     18971     18974     18976     18968     18971     18974     18979
     18969     18968     18971     18972     18969     18968     18971     18973
     18969     18968     18971     18974     18970     18968     18971     18972
     18970     18968     18971     18973     18970     18968     18971     18974
     18971     18974     18976     18977     18971     18974     18976     18978
     18971     18974     18976     18979     18971     18974     18979     18976
     18971     18974     18979     18980     18971     18974     18979     18981
     18972     18971     18974     18975     18972     18971     18974     18976
     18972     18971     18974     18979     18973     18971     18974     18975
     18973     18971     18974     18976     18973     18971     18974     18979
     18974     18976     18979     18980     18974     18976     18979     18981
     18974     18979     18976     18977     18974     18979     18976     18978
     18974     18979     18981     18982     18974     18979     18981     18983
     18974     18979     18981     18984     18975     18974     18976     18977
     18975     18974     18976     18978     18975     18974     18976     18979
     18975     18974     18979     18976     18975     18974     18979     18980
     18975     18974     18979     18981     18976     18974     18979     18980
     18976     18974     18979     18981     18976     18979     18981     18982
     18976     18979     18981     18983     18976     18979     18981     18984
     18977     18976     18974     18979     18977     18976     18979     18980
     18977     18976     18979     18981     18978     18976     18974     18979
     18978     18976     18979     18980     18978     18976     18979     18981
     18979     18981     18984     18985     18979     18981     18984     18986
     18979     18981     18984     18987     18980     18979     18981     18982
     18980     18979     18981     18983     18980     18979     18981     18984
     18981     18984     18987     18988     18981     18984     18987     18989
     18981     18984     18987     18990     18982     18981     18984     18985
     18982     18981     18984     18986     18982     18981     18984     18987
     18983     18981     18984     18985     18983     18981     18984     18986
     18983     18981     18984     18987     18984     18987     18990     18991
     18984     18987     18990     18992     18984     18987     18990     18993
     18985     18984     18987     18988     18985     18984     18987     18989
     18985     18984     18987     18990     18986     18984     18987     18988
     18986     18984     18987     18989     18986     18984     18987     18990
     18987     18990     18993     18994     18987     18990     18993     18995
     18987     18990     18993     18996     18988     18987     18990     18991
     18988     18987     18990     18992     18988     18987     18990     18993
     18989     18987     18990     18991     18989     18987     18990     18992
     18989     18987     18990     18993     18990     18993     18996     18997
     18990     18993     18996     18998     18990     18993     18996     18999
     18991     18990     18993     18994     18991     18990     18993     18995
     18991     18990     18993     18996     18992     18990     18993     18994
     18992     18990     18993     18995     18992     18990     18993     18996
     18994     18993     18996     18997     18994     18993     18996     18998
     18994     18993     18996     18999     18995     18993     18996     18997
     18995     18993     18996     18998     18995     18993     18996     18999
     19000     19003     19006     19007     19000     19003     19006     19008
     19000     19003     19006     19009     19001     19000     19003     19004
     19001     19000     19003     19005     19001     19000     19003     19006
     19002     19000     19003     19004     19002     19000     19003     19005
     19002     19000     19003     19006     19003     19006     19009     19010
     19003     19006     19009     19011     19003     19006     19009     19012
     19004     19003     19006     19007     19004     19003     19006     19008
     19004     19003     19006     19009     19005     19003     19006     19007
     19005     19003     19006     19008     19005     19003     19006     19009
     19006     19009     19012     19013     19006     19009     19012     19014
     19006     19009     19012     19015     19007     19006     19009     19010
     19007     19006     19009     19011     19007     19006     19009     19012
     19008     19006     19009     19010     19008     19006     19009     19011
     19008     19006     19009     19012     19009     19012     19015     19016
     19009     19012     19015     19017     19009     19012     19015     19018
     19010     19009     19012     19013     19010     19009     19012     19014
     19010     19009     19012     19015     19011     19009     19012     19013
     19011     19009     19012     19014     19011     19009     19012     19015
     19012     19015     19018     19019     19012     19015     19018     19020
     19012     19015     19018     19021     19013     19012     19015     19016
     19013     19012     19015     19017     19013     19012     19015     19018
     19014     19012     19015     19016     19014     19012     19015     19017
     19014     19012     19015     19018     19015     19018     19021     19022
     19015     19018     19021     19023     19015     19018     19021     19024
     19016     19015     19018     19019     19016     19015     19018     19020
     19016     19015     19018     19021     19017     19015     19018     19019
     19017     19015     19018     19020     19017     19015     19018     19021
     19018     19021     19024     19025     19018     19021     19024     19026
     19018     19021     19024     19027     19019     19018     19021     19022
     19019     19018     19021     19023     19019     19018     19021     19024
     19020     19018     19021     19022     19020     19018     19021     19023
     19020     19018     19021     19024     19021     19024     19027     19028
     19021     19024     19027     19029     19021     19024     19027     19030
     19022     19021     19024     19025     19022     19021     19024     19026
     19022     19021     19024     19027     19023     19021     19024     19025
     19023     19021     19024     19026     19023     19021     19024     19027
     19024     19027     19030     19031     19024     19027     19030     19032
     19024     19027     19030     19033     19025     19024     19027     19028
     19025     19024     19027     19029     19025     19024     19027     19030
     19026     19024     19027     19028     19026     19024     19027     19029
     19026     19024     19027     19030     19027     19030     19033     19034
     19027     19030     19033     19035     19027     19030     19033     19036
     19028     19027     19030     19031     19028     19027     19030     19032
     19028     19027     19030     19033     19029     19027     19030     19031
     19029     19027     19030     19032     19029     19027     19030     19033
     19030     19033     19036     19037     19030     19033     19036     19038
     19030     19033     19036     19039     19031     19030     19033     19034
     19031     19030     19033     19035     19031     19030     19033     19036
     19032     19030     19033     19034     19032     19030     19033     19035
     19032     19030     19033     19036     19033     19036     19039     19040
     19033     19036     19039     19041     19033     19036     19039     19042
     19034     19033     19036     19037     19034     19033     19036     19038
     19034     19033     19036     19039     19035     19033     19036     19037
     19035     19033     19036     19038     19035     19033     19036     19039
     19037     19036     19039     19040     19037     19036     19039     19041
     19037     19036     19039     19042     19038     19036     19039     19040
     19038     19036     19039     19041     19038     19036     19039     19042
     19043     19047     19050     19051     19043     19047     19050     19052
     19043     19047     19050     19057     19044     19043     19047     19048
     19044     19043     19047     19049     19044     19043     19047     19050
     19045     19043     19047     19048     19045     19043     19047     19049
     19045     19043     19047     19050     19046     19043     19047     19048
     19046     19043     19047     19049     19046     19043     19047     19050
     19047     19050     19057     19053     19048     19047     19050     19051
     19048     19047     19050     19052     19048     19047     19050     19057
     19049     19047     19050     19051     19049     19047     19050     19052
     19049     19047     19050     19057     19050     19057     19053     19054
     19050     19057     19053     19055     19050     19057     19053     19056
     19051     19050     19057     19053     19052     19050     19057     19053
     19053     19056     19058     19059     19053     19056     19058     19060
     19053     19056     19058     19061     19054     19053     19056     19058
     19055     19053     19056     19058     19056     19058     19061     19062
     19056     19058     19061     19063     19056     19058     19061     19069
     19057     19053     19056     19058     19058     19061     19063     19064
     19058     19061     19069     19070     19058     19061     19069     19071
     19058     19061     19069     19072     19059     19058     19061     19062
     19059     19058     19061     19063     19059     19058     19061     19069
     19060     19058     19061     19062     19060     19058     19061     19063
     19060     19058     19061     19069     19061     19063     19064     19065
     19061     19063     19064     19066     19061     19069     19072     19073
     19062     19061     19063     19064     19062     19061     19069     19070
     19062     19061     19069     19071     19062     19061     19069     19072
     19063     19061     19069     19070     19063     19061     19069     19071
     19063     19061     19069     19072     19063     19064     19066     19067
     19063     19064     19066     19068     19063     19064     19066     19078
     19064     19063     19061     19069     19064     19066     19078     19079
     19064     19066     19078     19080     19064     19066     19078     19081
     19065     19064     19066     19067     19065     19064     19066     19068
     19065     19064     19066     19078     19066     19078     19081     19082
     19066     19078     19081     19083     19066     19078     19081     19084
     19067     19066     19078     19079     19067     19066     19078     19080
     19067     19066     19078     19081     19068     19066     19078     19079
     19068     19066     19078     19080     19068     19066     19078     19081
     19069     19072     19073     19074     19069     19072     19073     19075
     19070     19069     19072     19073     19071     19069     19072     19073
     19072     19073     19075     19076     19072     19073     19075     19077
     19072     19073     19075     19122     19073     19075     19122     19123
     19073     19075     19122     19124     19073     19075     19122     19125
     19074     19073     19075     19076     19074     19073     19075     19077
     19074     19073     19075     19122     19075     19122     19125     19126
     19075     19122     19125     19127     19075     19122     19125     19128
     19076     19075     19122     19123     19076     19075     19122     19124
     19076     19075     19122     19125     19077     19075     19122     19123
     19077     19075     19122     19124     19077     19075     19122     19125
     19078     19081     19084     19085     19078     19081     19084     19086
     19078     19081     19084     19087     19079     19078     19081     19082
     19079     19078     19081     19083     19079     19078     19081     19084
     19080     19078     19081     19082     19080     19078     19081     19083
     19080     19078     19081     19084     19081     19084     19087     19088
     19081     19084     19087     19089     19081     19084     19087     19090
     19082     19081     19084     19085     19082     19081     19084     19086
     19082     19081     19084     19087     19083     19081     19084     19085
     19083     19081     19084     19086     19083     19081     19084     19087
     19084     19087     19090     19091     19084     19087     19090     19092
     19084     19087     19090     19093     19085     19084     19087     19088
     19085     19084     19087     19089     19085     19084     19087     19090
     19086     19084     19087     19088     19086     19084     19087     19089
     19086     19084     19087     19090     19087     19090     19093     19094
     19087     19090     19093     19095     19087     19090     19093     19096
     19088     19087     19090     19091     19088     19087     19090     19092
     19088     19087     19090     19093     19089     19087     19090     19091
     19089     19087     19090     19092     19089     19087     19090     19093
     19090     19093     19096     19097     19090     19093     19096     19098
     19090     19093     19096     19101     19091     19090     19093     19094
     19091     19090     19093     19095     19091     19090     19093     19096
     19092     19090     19093     19094     19092     19090     19093     19095
     19092     19090     19093     19096     19093     19096     19098     19099
     19093     19096     19098     19100     19093     19096     19098     19101
     19093     19096     19101     19098     19093     19096     19101     19102
     19093     19096     19101     19103     19094     19093     19096     19097
     19094     19093     19096     19098     19094     19093     19096     19101
     19095     19093     19096     19097     19095     19093     19096     19098
     19095     19093     19096     19101     19096     19098     19101     19102
     19096     19098     19101     19103     19096     19101     19098     19099
     19096     19101     19098     19100     19096     19101     19103     19104
     19096     19101     19103     19105     19096     19101     19103     19106
     19097     19096     19098     19099     19097     19096     19098     19100
     19097     19096     19098     19101     19097     19096     19101     19098
     19097     19096     19101     19102     19097     19096     19101     19103
     19098     19096     19101     19102     19098     19096     19101     19103
     19098     19101     19103     19104     19098     19101     19103     19105
     19098     19101     19103     19106     19099     19098     19096     19101
     19099     19098     19101     19102     19099     19098     19101     19103
     19100     19098     19096     19101     19100     19098     19101     19102
     19100     19098     19101     19103     19101     19103     19106     19107
     19101     19103     19106     19108     19101     19103     19106     19109
     19102     19101     19103     19104     19102     19101     19103     19105
     19102     19101     19103     19106     19103     19106     19109     19110
     19103     19106     19109     19111     19103     19106     19109     19112
     19104     19103     19106     19107     19104     19103     19106     19108
     19104     19103     19106     19109     19105     19103     19106     19107
     19105     19103     19106     19108     19105     19103     19106     19109
     19106     19109     19112     19113     19106     19109     19112     19114
     19106     19109     19112     19115     19107     19106     19109     19110
     19107     19106     19109     19111     19107     19106     19109     19112
     19108     19106     19109     19110     19108     19106     19109     19111
     19108     19106     19109     19112     19109     19112     19115     19116
     19109     19112     19115     19117     19109     19112     19115     19118
     19110     19109     19112     19113     19110     19109     19112     19114
     19110     19109     19112     19115     19111     19109     19112     19113
     19111     19109     19112     19114     19111     19109     19112     19115
     19112     19115     19118     19119     19112     19115     19118     19120
     19112     19115     19118     19121     19113     19112     19115     19116
     19113     19112     19115     19117     19113     19112     19115     19118
     19114     19112     19115     19116     19114     19112     19115     19117
     19114     19112     19115     19118     19116     19115     19118     19119
     19116     19115     19118     19120     19116     19115     19118     19121
     19117     19115     19118     19119     19117     19115     19118     19120
     19117     19115     19118     19121     19122     19125     19128     19129
     19122     19125     19128     19130     19122     19125     19128     19131
     19123     19122     19125     19126     19123     19122     19125     19127
     19123     19122     19125     19128     19124     19122     19125     19126
     19124     19122     19125     19127     19124     19122     19125     19128
     19125     19128     19131     19132     19125     19128     19131     19133
     19125     19128     19131     19134     19126     19125     19128     19129
     19126     19125     19128     19130     19126     19125     19128     19131
     19127     19125     19128     19129     19127     19125     19128     19130
     19127     19125     19128     19131     19128     19131     19134     19135
     19128     19131     19134     19136     19128     19131     19134     19137
     19129     19128     19131     19132     19129     19128     19131     19133
     19129     19128     19131     19134     19130     19128     19131     19132
     19130     19128     19131     19133     19130     19128     19131     19134
     19131     19134     19137     19138     19131     19134     19137     19139
     19131     19134     19137     19140     19132     19131     19134     19135
     19132     19131     19134     19136     19132     19131     19134     19137
     19133     19131     19134     19135     19133     19131     19134     19136
     19133     19131     19134     19137     19134     19137     19140     19141
     19134     19137     19140     19142     19134     19137     19140     19143
     19135     19134     19137     19138     19135     19134     19137     19139
     19135     19134     19137     19140     19136     19134     19137     19138
     19136     19134     19137     19139     19136     19134     19137     19140
     19137     19140     19143     19144     19137     19140     19143     19145
     19137     19140     19143     19146     19138     19137     19140     19141
     19138     19137     19140     19142     19138     19137     19140     19143
     19139     19137     19140     19141     19139     19137     19140     19142
     19139     19137     19140     19143     19140     19143     19146     19147
     19140     19143     19146     19148     19140     19143     19146     19149
     19141     19140     19143     19144     19141     19140     19143     19145
     19141     19140     19143     19146     19142     19140     19143     19144
     19142     19140     19143     19145     19142     19140     19143     19146
     19143     19146     19149     19150     19143     19146     19149     19151
     19143     19146     19149     19152     19144     19143     19146     19147
     19144     19143     19146     19148     19144     19143     19146     19149
     19145     19143     19146     19147     19145     19143     19146     19148
     19145     19143     19146     19149     19146     19149     19152     19153
     19146     19149     19152     19154     19146     19149     19152     19155
     19147     19146     19149     19150     19147     19146     19149     19151
     19147     19146     19149     19152     19148     19146     19149     19150
     19148     19146     19149     19151     19148     19146     19149     19152
     19149     19152     19155     19156     19149     19152     19155     19157
     19149     19152     19155     19158     19150     19149     19152     19153
     19150     19149     19152     19154     19150     19149     19152     19155
     19151     19149     19152     19153     19151     19149     19152     19154
     19151     19149     19152     19155     19152     19155     19158     19159
     19152     19155     19158     19160     19152     19155     19158     19161
     19153     19152     19155     19156     19153     19152     19155     19157
     19153     19152     19155     19158     19154     19152     19155     19156
     19154     19152     19155     19157     19154     19152     19155     19158
     19155     19158     19161     19162     19155     19158     19161     19163
     19155     19158     19161     19164     19156     19155     19158     19159
     19156     19155     19158     19160     19156     19155     19158     19161
     19157     19155     19158     19159     19157     19155     19158     19160
     19157     19155     19158     19161     19159     19158     19161     19162
     19159     19158     19161     19163     19159     19158     19161     19164
     19160     19158     19161     19162     19160     19158     19161     19163
     19160     19158     19161     19164     19165     19169     19172     19173
     19165     19169     19172     19174     19165     19169     19172     19179
     19166     19165     19169     19170     19166     19165     19169     19171
     19166     19165     19169     19172     19167     19165     19169     19170
     19167     19165     19169     19171     19167     19165     19169     19172
     19168     19165     19169     19170     19168     19165     19169     19171
     19168     19165     19169     19172     19169     19172     19179     19175
     19170     19169     19172     19173     19170     19169     19172     19174
     19170     19169     19172     19179     19171     19169     19172     19173
     19171     19169     19172     19174     19171     19169     19172     19179
     19172     19179     19175     19176     19172     19179     19175     19177
     19172     19179     19175     19178     19173     19172     19179     19175
     19174     19172     19179     19175     19175     19178     19180     19181
     19175     19178     19180     19182     19175     19178     19180     19183
     19176     19175     19178     19180     19177     19175     19178     19180
     19178     19180     19183     19184     19178     19180     19183     19185
     19178     19180     19183     19191     19179     19175     19178     19180
     19180     19183     19185     19186     19180     19183     19191     19192
     19180     19183     19191     19193     19180     19183     19191     19194
     19181     19180     19183     19184     19181     19180     19183     19185
     19181     19180     19183     19191     19182     19180     19183     19184
     19182     19180     19183     19185     19182     19180     19183     19191
     19183     19185     19186     19187     19183     19185     19186     19188
     19183     19191     19194     19195     19184     19183     19185     19186
     19184     19183     19191     19192     19184     19183     19191     19193
     19184     19183     19191     19194     19185     19183     19191     19192
     19185     19183     19191     19193     19185     19183     19191     19194
     19185     19186     19188     19189     19185     19186     19188     19190
     19185     19186     19188     19200     19186     19185     19183     19191
     19186     19188     19200     19201     19186     19188     19200     19202
     19186     19188     19200     19203     19187     19186     19188     19189
     19187     19186     19188     19190     19187     19186     19188     19200
     19188     19200     19203     19204     19188     19200     19203     19205
     19188     19200     19203     19206     19189     19188     19200     19201
     19189     19188     19200     19202     19189     19188     19200     19203
     19190     19188     19200     19201     19190     19188     19200     19202
     19190     19188     19200     19203     19191     19194     19195     19196
     19191     19194     19195     19197     19192     19191     19194     19195
     19193     19191     19194     19195     19194     19195     19197     19198
     19194     19195     19197     19199     19194     19195     19197     19247
     19195     19197     19247     19248     19195     19197     19247     19249
     19195     19197     19247     19250     19196     19195     19197     19198
     19196     19195     19197     19199     19196     19195     19197     19247
     19197     19247     19250     19251     19197     19247     19250     19252
     19197     19247     19250     19253     19198     19197     19247     19248
     19198     19197     19247     19249     19198     19197     19247     19250
     19199     19197     19247     19248     19199     19197     19247     19249
     19199     19197     19247     19250     19200     19203     19206     19207
     19200     19203     19206     19208     19200     19203     19206     19209
     19201     19200     19203     19204     19201     19200     19203     19205
     19201     19200     19203     19206     19202     19200     19203     19204
     19202     19200     19203     19205     19202     19200     19203     19206
     19203     19206     19209     19210     19203     19206     19209     19211
     19203     19206     19209     19212     19204     19203     19206     19207
     19204     19203     19206     19208     19204     19203     19206     19209
     19205     19203     19206     19207     19205     19203     19206     19208
     19205     19203     19206     19209     19206     19209     19212     19213
     19206     19209     19212     19214     19206     19209     19212     19215
     19207     19206     19209     19210     19207     19206     19209     19211
     19207     19206     19209     19212     19208     19206     19209     19210
     19208     19206     19209     19211     19208     19206     19209     19212
     19209     19212     19215     19216     19209     19212     19215     19217
     19209     19212     19215     19218     19210     19209     19212     19213
     19210     19209     19212     19214     19210     19209     19212     19215
     19211     19209     19212     19213     19211     19209     19212     19214
     19211     19209     19212     19215     19212     19215     19218     19219
     19212     19215     19218     19220     19213     19212     19215     19216
     19213     19212     19215     19217     19213     19212     19215     19218
     19214     19212     19215     19216     19214     19212     19215     19217
     19214     19212     19215     19218     19215     19218     19220     19221
     19215     19218     19220     19222     19216     19215     19218     19219
     19216     19215     19218     19220     19217     19215     19218     19219
     19217     19215     19218     19220     19218     19220     19222     19223
     19218     19220     19222     19224     19218     19220     19222     19225
     19219     19218     19220     19221     19219     19218     19220     19222
     19220     19222     19225     19226     19220     19222     19225     19227
     19220     19222     19225     19228     19221     19220     19222     19223
     19221     19220     19222     19224     19221     19220     19222     19225
     19222     19225     19228     19229     19222     19225     19228     19230
     19222     19225     19228     19231     19223     19222     19225     19226
     19223     19222     19225     19227     19223     19222     19225     19228
     19224     19222     19225     19226     19224     19222     19225     19227
     19224     19222     19225     19228     19225     19228     19231     19232
     19225     19228     19231     19233     19225     19228     19231     19234
     19226     19225     19228     19229     19226     19225     19228     19230
     19226     19225     19228     19231     19227     19225     19228     19229
     19227     19225     19228     19230     19227     19225     19228     19231
     19228     19231     19234     19235     19228     19231     19234     19236
     19228     19231     19234     19237     19229     19228     19231     19232
     19229     19228     19231     19233     19229     19228     19231     19234
     19230     19228     19231     19232     19230     19228     19231     19233
     19230     19228     19231     19234     19231     19234     19237     19238
     19231     19234     19237     19239     19231     19234     19237     19240
     19232     19231     19234     19235     19232     19231     19234     19236
     19232     19231     19234     19237     19233     19231     19234     19235
     19233     19231     19234     19236     19233     19231     19234     19237
     19234     19237     19240     19241     19234     19237     19240     19242
     19234     19237     19240     19243     19235     19234     19237     19238
     19235     19234     19237     19239     19235     19234     19237     19240
     19236     19234     19237     19238     19236     19234     19237     19239
     19236     19234     19237     19240     19237     19240     19243     19244
     19237     19240     19243     19245     19237     19240     19243     19246
     19238     19237     19240     19241     19238     19237     19240     19242
     19238     19237     19240     19243     19239     19237     19240     19241
     19239     19237     19240     19242     19239     19237     19240     19243
     19241     19240     19243     19244     19241     19240     19243     19245
     19241     19240     19243     19246     19242     19240     19243     19244
     19242     19240     19243     19245     19242     19240     19243     19246
     19247     19250     19253     19254     19247     19250     19253     19255
     19247     19250     19253     19256     19248     19247     19250     19251
     19248     19247     19250     19252     19248     19247     19250     19253
     19249     19247     19250     19251     19249     19247     19250     19252
     19249     19247     19250     19253     19250     19253     19256     19257
     19250     19253     19256     19258     19250     19253     19256     19259
     19251     19250     19253     19254     19251     19250     19253     19255
     19251     19250     19253     19256     19252     19250     19253     19254
     19252     19250     19253     19255     19252     19250     19253     19256
     19253     19256     19259     19260     19253     19256     19259     19261
     19253     19256     19259     19262     19254     19253     19256     19257
     19254     19253     19256     19258     19254     19253     19256     19259
     19255     19253     19256     19257     19255     19253     19256     19258
     19255     19253     19256     19259     19256     19259     19262     19263
     19256     19259     19262     19264     19256     19259     19262     19265
     19257     19256     19259     19260     19257     19256     19259     19261
     19257     19256     19259     19262     19258     19256     19259     19260
     19258     19256     19259     19261     19258     19256     19259     19262
     19259     19262     19265     19266     19259     19262     19265     19267
     19259     19262     19265     19268     19260     19259     19262     19263
     19260     19259     19262     19264     19260     19259     19262     19265
     19261     19259     19262     19263     19261     19259     19262     19264
     19261     19259     19262     19265     19262     19265     19268     19269
     19262     19265     19268     19270     19262     19265     19268     19271
     19263     19262     19265     19266     19263     19262     19265     19267
     19263     19262     19265     19268     19264     19262     19265     19266
     19264     19262     19265     19267     19264     19262     19265     19268
     19265     19268     19271     19272     19265     19268     19271     19273
     19265     19268     19271     19274     19266     19265     19268     19269
     19266     19265     19268     19270     19266     19265     19268     19271
     19267     19265     19268     19269     19267     19265     19268     19270
     19267     19265     19268     19271     19268     19271     19274     19275
     19268     19271     19274     19276     19268     19271     19274     19277
     19269     19268     19271     19272     19269     19268     19271     19273
     19269     19268     19271     19274     19270     19268     19271     19272
     19270     19268     19271     19273     19270     19268     19271     19274
     19271     19274     19277     19278     19271     19274     19277     19279
     19271     19274     19277     19280     19272     19271     19274     19275
     19272     19271     19274     19276     19272     19271     19274     19277
     19273     19271     19274     19275     19273     19271     19274     19276
     19273     19271     19274     19277     19274     19277     19280     19281
     19274     19277     19280     19282     19274     19277     19280     19283
     19275     19274     19277     19278     19275     19274     19277     19279
     19275     19274     19277     19280     19276     19274     19277     19278
     19276     19274     19277     19279     19276     19274     19277     19280
     19277     19280     19283     19284     19277     19280     19283     19285
     19277     19280     19283     19286     19278     19277     19280     19281
     19278     19277     19280     19282     19278     19277     19280     19283
     19279     19277     19280     19281     19279     19277     19280     19282
     19279     19277     19280     19283     19280     19283     19286     19287
     19280     19283     19286     19288     19280     19283     19286     19289
     19281     19280     19283     19284     19281     19280     19283     19285
     19281     19280     19283     19286     19282     19280     19283     19284
     19282     19280     19283     19285     19282     19280     19283     19286
     19284     19283     19286     19287     19284     19283     19286     19288
     19284     19283     19286     19289     19285     19283     19286     19287
     19285     19283     19286     19288     19285     19283     19286     19289
     19290     19294     19297     19298     19290     19294     19297     19299
     19290     19294     19297     19304     19291     19290     19294     19295
     19291     19290     19294     19296     19291     19290     19294     19297
     19292     19290     19294     19295     19292     19290     19294     19296
     19292     19290     19294     19297     19293     19290     19294     19295
     19293     19290     19294     19296     19293     19290     19294     19297
     19294     19297     19304     19300     19295     19294     19297     19298
     19295     19294     19297     19299     19295     19294     19297     19304
     19296     19294     19297     19298     19296     19294     19297     19299
     19296     19294     19297     19304     19297     19304     19300     19301
     19297     19304     19300     19302     19297     19304     19300     19303
     19298     19297     19304     19300     19299     19297     19304     19300
     19300     19303     19305     19306     19300     19303     19305     19307
     19300     19303     19305     19308     19301     19300     19303     19305
     19302     19300     19303     19305     19303     19305     19308     19309
     19303     19305     19308     19310     19303     19305     19308     19316
     19304     19300     19303     19305     19305     19308     19310     19311
     19305     19308     19316     19317     19305     19308     19316     19318
     19305     19308     19316     19319     19306     19305     19308     19309
     19306     19305     19308     19310     19306     19305     19308     19316
     19307     19305     19308     19309     19307     19305     19308     19310
     19307     19305     19308     19316     19308     19310     19311     19312
     19308     19310     19311     19313     19308     19316     19319     19320
     19309     19308     19310     19311     19309     19308     19316     19317
     19309     19308     19316     19318     19309     19308     19316     19319
     19310     19308     19316     19317     19310     19308     19316     19318
     19310     19308     19316     19319     19310     19311     19313     19314
     19310     19311     19313     19315     19310     19311     19313     19325
     19311     19310     19308     19316     19311     19313     19325     19326
     19311     19313     19325     19327     19311     19313     19325     19328
     19312     19311     19313     19314     19312     19311     19313     19315
     19312     19311     19313     19325     19313     19325     19328     19329
     19313     19325     19328     19330     19313     19325     19328     19331
     19314     19313     19325     19326     19314     19313     19325     19327
     19314     19313     19325     19328     19315     19313     19325     19326
     19315     19313     19325     19327     19315     19313     19325     19328
     19316     19319     19320     19321     19316     19319     19320     19322
     19317     19316     19319     19320     19318     19316     19319     19320
     19319     19320     19322     19323     19319     19320     19322     19324
     19319     19320     19322     19369     19320     19322     19369     19370
     19320     19322     19369     19371     19320     19322     19369     19372
     19321     19320     19322     19323     19321     19320     19322     19324
     19321     19320     19322     19369     19322     19369     19372     19373
     19322     19369     19372     19374     19322     19369     19372     19375
     19323     19322     19369     19370     19323     19322     19369     19371
     19323     19322     19369     19372     19324     19322     19369     19370
     19324     19322     19369     19371     19324     19322     19369     19372
     19325     19328     19331     19332     19325     19328     19331     19333
     19325     19328     19331     19334     19326     19325     19328     19329
     19326     19325     19328     19330     19326     19325     19328     19331
     19327     19325     19328     19329     19327     19325     19328     19330
     19327     19325     19328     19331     19328     19331     19334     19335
     19328     19331     19334     19336     19328     19331     19334     19337
     19329     19328     19331     19332     19329     19328     19331     19333
     19329     19328     19331     19334     19330     19328     19331     19332
     19330     19328     19331     19333     19330     19328     19331     19334
     19331     19334     19337     19338     19331     19334     19337     19339
     19331     19334     19337     19340     19332     19331     19334     19335
     19332     19331     19334     19336     19332     19331     19334     19337
     19333     19331     19334     19335     19333     19331     19334     19336
     19333     19331     19334     19337     19334     19337     19340     19341
     19334     19337     19340     19342     19334     19337     19340     19343
     19335     19334     19337     19338     19335     19334     19337     19339
     19335     19334     19337     19340     19336     19334     19337     19338
     19336     19334     19337     19339     19336     19334     19337     19340
     19337     19340     19343     19344     19337     19340     19343     19345
     19337     19340     19343     19348     19338     19337     19340     19341
     19338     19337     19340     19342     19338     19337     19340     19343
     19339     19337     19340     19341     19339     19337     19340     19342
     19339     19337     19340     19343     19340     19343     19345     19346
     19340     19343     19345     19347     19340     19343     19345     19348
     19340     19343     19348     19345     19340     19343     19348     19349
     19340     19343     19348     19350     19341     19340     19343     19344
     19341     19340     19343     19345     19341     19340     19343     19348
     19342     19340     19343     19344     19342     19340     19343     19345
     19342     19340     19343     19348     19343     19345     19348     19349
     19343     19345     19348     19350     19343     19348     19345     19346
     19343     19348     19345     19347     19343     19348     19350     19351
     19343     19348     19350     19352     19343     19348     19350     19353
     19344     19343     19345     19346     19344     19343     19345     19347
     19344     19343     19345     19348     19344     19343     19348     19345
     19344     19343     19348     19349     19344     19343     19348     19350
     19345     19343     19348     19349     19345     19343     19348     19350
     19345     19348     19350     19351     19345     19348     19350     19352
     19345     19348     19350     19353     19346     19345     19343     19348
     19346     19345     19348     19349     19346     19345     19348     19350
     19347     19345     19343     19348     19347     19345     19348     19349
     19347     19345     19348     19350     19348     19350     19353     19354
     19348     19350     19353     19355     19348     19350     19353     19356
     19349     19348     19350     19351     19349     19348     19350     19352
     19349     19348     19350     19353     19350     19353     19356     19357
     19350     19353     19356     19358     19350     19353     19356     19359
     19351     19350     19353     19354     19351     19350     19353     19355
     19351     19350     19353     19356     19352     19350     19353     19354
     19352     19350     19353     19355     19352     19350     19353     19356
     19353     19356     19359     19360     19353     19356     19359     19361
     19353     19356     19359     19362     19354     19353     19356     19357
     19354     19353     19356     19358     19354     19353     19356     19359
     19355     19353     19356     19357     19355     19353     19356     19358
     19355     19353     19356     19359     19356     19359     19362     19363
     19356     19359     19362     19364     19356     19359     19362     19365
     19357     19356     19359     19360     19357     19356     19359     19361
     19357     19356     19359     19362     19358     19356     19359     19360
     19358     19356     19359     19361     19358     19356     19359     19362
     19359     19362     19365     19366     19359     19362     19365     19367
     19359     19362     19365     19368     19360     19359     19362     19363
     19360     19359     19362     19364     19360     19359     19362     19365
     19361     19359     19362     19363     19361     19359     19362     19364
     19361     19359     19362     19365     19363     19362     19365     19366
     19363     19362     19365     19367     19363     19362     19365     19368
     19364     19362     19365     19366     19364     19362     19365     19367
     19364     19362     19365     19368     19369     19372     19375     19376
     19369     19372     19375     19377     19369     19372     19375     19378
     19370     19369     19372     19373     19370     19369     19372     19374
     19370     19369     19372     19375     19371     19369     19372     19373
     19371     19369     19372     19374     19371     19369     19372     19375
     19372     19375     19378     19379     19372     19375     19378     19380
     19372     19375     19378     19381     19373     19372     19375     19376
     19373     19372     19375     19377     19373     19372     19375     19378
     19374     19372     19375     19376     19374     19372     19375     19377
     19374     19372     19375     19378     19375     19378     19381     19382
     19375     19378     19381     19383     19375     19378     19381     19384
     19376     19375     19378     19379     19376     19375     19378     19380
     19376     19375     19378     19381     19377     19375     19378     19379
     19377     19375     19378     19380     19377     19375     19378     19381
     19378     19381     19384     19385     19378     19381     19384     19386
     19378     19381     19384     19387     19379     19378     19381     19382
     19379     19378     19381     19383     19379     19378     19381     19384
     19380     19378     19381     19382     19380     19378     19381     19383
     19380     19378     19381     19384     19381     19384     19387     19388
     19381     19384     19387     19389     19381     19384     19387     19390
     19382     19381     19384     19385     19382     19381     19384     19386
     19382     19381     19384     19387     19383     19381     19384     19385
     19383     19381     19384     19386     19383     19381     19384     19387
     19384     19387     19390     19391     19384     19387     19390     19392
     19384     19387     19390     19393     19385     19384     19387     19388
     19385     19384     19387     19389     19385     19384     19387     19390
     19386     19384     19387     19388     19386     19384     19387     19389
     19386     19384     19387     19390     19387     19390     19393     19394
     19387     19390     19393     19395     19387     19390     19393     19396
     19388     19387     19390     19391     19388     19387     19390     19392
     19388     19387     19390     19393     19389     19387     19390     19391
     19389     19387     19390     19392     19389     19387     19390     19393
     19390     19393     19396     19397     19390     19393     19396     19398
     19390     19393     19396     19399     19391     19390     19393     19394
     19391     19390     19393     19395     19391     19390     19393     19396
     19392     19390     19393     19394     19392     19390     19393     19395
     19392     19390     19393     19396     19393     19396     19399     19400
     19393     19396     19399     19401     19393     19396     19399     19402
     19394     19393     19396     19397     19394     19393     19396     19398
     19394     19393     19396     19399     19395     19393     19396     19397
     19395     19393     19396     19398     19395     19393     19396     19399
     19396     19399     19402     19403     19396     19399     19402     19404
     19396     19399     19402     19405     19397     19396     19399     19400
     19397     19396     19399     19401     19397     19396     19399     19402
     19398     19396     19399     19400     19398     19396     19399     19401
     19398     19396     19399     19402     19399     19402     19405     19406
     19399     19402     19405     19407     19399     19402     19405     19408
     19400     19399     19402     19403     19400     19399     19402     19404
     19400     19399     19402     19405     19401     19399     19402     19403
     19401     19399     19402     19404     19401     19399     19402     19405
     19402     19405     19408     19409     19402     19405     19408     19410
     19402     19405     19408     19411     19403     19402     19405     19406
     19403     19402     19405     19407     19403     19402     19405     19408
     19404     19402     19405     19406     19404     19402     19405     19407
     19404     19402     19405     19408     19406     19405     19408     19409
     19406     19405     19408     19410     19406     19405     19408     19411
     19407     19405     19408     19409     19407     19405     19408     19410
     19407     19405     19408     19411     19412     19416     19419     19420
     19412     19416     19419     19421     19412     19416     19419     19426
     19413     19412     19416     19417     19413     19412     19416     19418
     19413     19412     19416     19419     19414     19412     19416     19417
     19414     19412     19416     19418     19414     19412     19416     19419
     19415     19412     19416     19417     19415     19412     19416     19418
     19415     19412     19416     19419     19416     19419     19426     19422
     19417     19416     19419     19420     19417     19416     19419     19421
     19417     19416     19419     19426     19418     19416     19419     19420
     19418     19416     19419     19421     19418     19416     19419     19426
     19419     19426     19422     19423     19419     19426     19422     19424
     19419     19426     19422     19425     19420     19419     19426     19422
     19421     19419     19426     19422     19422     19425     19427     19428
     19422     19425     19427     19429     19422     19425     19427     19430
     19423     19422     19425     19427     19424     19422     19425     19427
     19425     19427     19430     19431     19425     19427     19430     19432
     19425     19427     19430     19438     19426     19422     19425     19427
     19427     19430     19432     19433     19427     19430     19438     19439
     19427     19430     19438     19440     19427     19430     19438     19441
     19428     19427     19430     19431     19428     19427     19430     19432
     19428     19427     19430     19438     19429     19427     19430     19431
     19429     19427     19430     19432     19429     19427     19430     19438
     19430     19432     19433     19434     19430     19432     19433     19435
     19430     19438     19441     19442     19431     19430     19432     19433
     19431     19430     19438     19439     19431     19430     19438     19440
     19431     19430     19438     19441     19432     19430     19438     19439
     19432     19430     19438     19440     19432     19430     19438     19441
     19432     19433     19435     19436     19432     19433     19435     19437
     19432     19433     19435     19447     19433     19432     19430     19438
     19433     19435     19447     19448     19433     19435     19447     19449
     19433     19435     19447     19450     19434     19433     19435     19436
     19434     19433     19435     19437     19434     19433     19435     19447
     19435     19447     19450     19451     19435     19447     19450     19452
     19435     19447     19450     19453     19436     19435     19447     19448
     19436     19435     19447     19449     19436     19435     19447     19450
     19437     19435     19447     19448     19437     19435     19447     19449
     19437     19435     19447     19450     19438     19441     19442     19443
     19438     19441     19442     19444     19439     19438     19441     19442
     19440     19438     19441     19442     19441     19442     19444     19445
     19441     19442     19444     19446     19441     19442     19444     19494
     19442     19444     19494     19495     19442     19444     19494     19496
     19442     19444     19494     19497     19443     19442     19444     19445
     19443     19442     19444     19446     19443     19442     19444     19494
     19444     19494     19497     19498     19444     19494     19497     19499
     19444     19494     19497     19500     19445     19444     19494     19495
     19445     19444     19494     19496     19445     19444     19494     19497
     19446     19444     19494     19495     19446     19444     19494     19496
     19446     19444     19494     19497     19447     19450     19453     19454
     19447     19450     19453     19455     19447     19450     19453     19456
     19448     19447     19450     19451     19448     19447     19450     19452
     19448     19447     19450     19453     19449     19447     19450     19451
     19449     19447     19450     19452     19449     19447     19450     19453
     19450     19453     19456     19457     19450     19453     19456     19458
     19450     19453     19456     19459     19451     19450     19453     19454
     19451     19450     19453     19455     19451     19450     19453     19456
     19452     19450     19453     19454     19452     19450     19453     19455
     19452     19450     19453     19456     19453     19456     19459     19460
     19453     19456     19459     19461     19453     19456     19459     19462
     19454     19453     19456     19457     19454     19453     19456     19458
     19454     19453     19456     19459     19455     19453     19456     19457
     19455     19453     19456     19458     19455     19453     19456     19459
     19456     19459     19462     19463     19456     19459     19462     19464
     19456     19459     19462     19465     19457     19456     19459     19460
     19457     19456     19459     19461     19457     19456     19459     19462
     19458     19456     19459     19460     19458     19456     19459     19461
     19458     19456     19459     19462     19459     19462     19465     19466
     19459     19462     19465     19467     19460     19459     19462     19463
     19460     19459     19462     19464     19460     19459     19462     19465
     19461     19459     19462     19463     19461     19459     19462     19464
     19461     19459     19462     19465     19462     19465     19467     19468
     19462     19465     19467     19469     19463     19462     19465     19466
     19463     19462     19465     19467     19464     19462     19465     19466
     19464     19462     19465     19467     19465     19467     19469     19470
     19465     19467     19469     19471     19465     19467     19469     19472
     19466     19465     19467     19468     19466     19465     19467     19469
     19467     19469     19472     19473     19467     19469     19472     19474
     19467     19469     19472     19475     19468     19467     19469     19470
     19468     19467     19469     19471     19468     19467     19469     19472
     19469     19472     19475     19476     19469     19472     19475     19477
     19469     19472     19475     19478     19470     19469     19472     19473
     19470     19469     19472     19474     19470     19469     19472     19475
     19471     19469     19472     19473     19471     19469     19472     19474
     19471     19469     19472     19475     19472     19475     19478     19479
     19472     19475     19478     19480     19472     19475     19478     19481
     19473     19472     19475     19476     19473     19472     19475     19477
     19473     19472     19475     19478     19474     19472     19475     19476
     19474     19472     19475     19477     19474     19472     19475     19478
     19475     19478     19481     19482     19475     19478     19481     19483
     19475     19478     19481     19484     19476     19475     19478     19479
     19476     19475     19478     19480     19476     19475     19478     19481
     19477     19475     19478     19479     19477     19475     19478     19480
     19477     19475     19478     19481     19478     19481     19484     19485
     19478     19481     19484     19486     19478     19481     19484     19487
     19479     19478     19481     19482     19479     19478     19481     19483
     19479     19478     19481     19484     19480     19478     19481     19482
     19480     19478     19481     19483     19480     19478     19481     19484
     19481     19484     19487     19488     19481     19484     19487     19489
     19481     19484     19487     19490     19482     19481     19484     19485
     19482     19481     19484     19486     19482     19481     19484     19487
     19483     19481     19484     19485     19483     19481     19484     19486
     19483     19481     19484     19487     19484     19487     19490     19491
     19484     19487     19490     19492     19484     19487     19490     19493
     19485     19484     19487     19488     19485     19484     19487     19489
     19485     19484     19487     19490     19486     19484     19487     19488
     19486     19484     19487     19489     19486     19484     19487     19490
     19488     19487     19490     19491     19488     19487     19490     19492
     19488     19487     19490     19493     19489     19487     19490     19491
     19489     19487     19490     19492     19489     19487     19490     19493
     19494     19497     19500     19501     19494     19497     19500     19502
     19494     19497     19500     19503     19495     19494     19497     19498
     19495     19494     19497     19499     19495     19494     19497     19500
     19496     19494     19497     19498     19496     19494     19497     19499
     19496     19494     19497     19500     19497     19500     19503     19504
     19497     19500     19503     19505     19497     19500     19503     19506
     19498     19497     19500     19501     19498     19497     19500     19502
     19498     19497     19500     19503     19499     19497     19500     19501
     19499     19497     19500     19502     19499     19497     19500     19503
     19500     19503     19506     19507     19500     19503     19506     19508
     19500     19503     19506     19509     19501     19500     19503     19504
     19501     19500     19503     19505     19501     19500     19503     19506
     19502     19500     19503     19504     19502     19500     19503     19505
     19502     19500     19503     19506     19503     19506     19509     19510
     19503     19506     19509     19511     19503     19506     19509     19512
     19504     19503     19506     19507     19504     19503     19506     19508
     19504     19503     19506     19509     19505     19503     19506     19507
     19505     19503     19506     19508     19505     19503     19506     19509
     19506     19509     19512     19513     19506     19509     19512     19514
     19506     19509     19512     19515     19507     19506     19509     19510
     19507     19506     19509     19511     19507     19506     19509     19512
     19508     19506     19509     19510     19508     19506     19509     19511
     19508     19506     19509     19512     19509     19512     19515     19516
     19509     19512     19515     19517     19509     19512     19515     19518
     19510     19509     19512     19513     19510     19509     19512     19514
     19510     19509     19512     19515     19511     19509     19512     19513
     19511     19509     19512     19514     19511     19509     19512     19515
     19512     19515     19518     19519     19512     19515     19518     19520
     19512     19515     19518     19521     19513     19512     19515     19516
     19513     19512     19515     19517     19513     19512     19515     19518
     19514     19512     19515     19516     19514     19512     19515     19517
     19514     19512     19515     19518     19515     19518     19521     19522
     19515     19518     19521     19523     19515     19518     19521     19524
     19516     19515     19518     19519     19516     19515     19518     19520
     19516     19515     19518     19521     19517     19515     19518     19519
     19517     19515     19518     19520     19517     19515     19518     19521
     19518     19521     19524     19525     19518     19521     19524     19526
     19518     19521     19524     19527     19519     19518     19521     19522
     19519     19518     19521     19523     19519     19518     19521     19524
     19520     19518     19521     19522     19520     19518     19521     19523
     19520     19518     19521     19524     19521     19524     19527     19528
     19521     19524     19527     19529     19521     19524     19527     19530
     19522     19521     19524     19525     19522     19521     19524     19526
     19522     19521     19524     19527     19523     19521     19524     19525
     19523     19521     19524     19526     19523     19521     19524     19527
     19524     19527     19530     19531     19524     19527     19530     19532
     19524     19527     19530     19533     19525     19524     19527     19528
     19525     19524     19527     19529     19525     19524     19527     19530
     19526     19524     19527     19528     19526     19524     19527     19529
     19526     19524     19527     19530     19527     19530     19533     19534
     19527     19530     19533     19535     19527     19530     19533     19536
     19528     19527     19530     19531     19528     19527     19530     19532
     19528     19527     19530     19533     19529     19527     19530     19531
     19529     19527     19530     19532     19529     19527     19530     19533
     19531     19530     19533     19534     19531     19530     19533     19535
     19531     19530     19533     19536     19532     19530     19533     19534
     19532     19530     19533     19535     19532     19530     19533     19536
     19537     19541     19544     19545     19537     19541     19544     19546
     19537     19541     19544     19551     19538     19537     19541     19542
     19538     19537     19541     19543     19538     19537     19541     19544
     19539     19537     19541     19542     19539     19537     19541     19543
     19539     19537     19541     19544     19540     19537     19541     19542
     19540     19537     19541     19543     19540     19537     19541     19544
     19541     19544     19551     19547     19542     19541     19544     19545
     19542     19541     19544     19546     19542     19541     19544     19551
     19543     19541     19544     19545     19543     19541     19544     19546
     19543     19541     19544     19551     19544     19551     19547     19548
     19544     19551     19547     19549     19544     19551     19547     19550
     19545     19544     19551     19547     19546     19544     19551     19547
     19547     19550     19552     19553     19547     19550     19552     19554
     19547     19550     19552     19555     19548     19547     19550     19552
     19549     19547     19550     19552     19550     19552     19555     19556
     19550     19552     19555     19557     19550     19552     19555     19563
     19551     19547     19550     19552     19552     19555     19557     19558
     19552     19555     19563     19564     19552     19555     19563     19565
     19552     19555     19563     19566     19553     19552     19555     19556
     19553     19552     19555     19557     19553     19552     19555     19563
     19554     19552     19555     19556     19554     19552     19555     19557
     19554     19552     19555     19563     19555     19557     19558     19559
     19555     19557     19558     19560     19555     19563     19566     19567
     19556     19555     19557     19558     19556     19555     19563     19564
     19556     19555     19563     19565     19556     19555     19563     19566
     19557     19555     19563     19564     19557     19555     19563     19565
     19557     19555     19563     19566     19557     19558     19560     19561
     19557     19558     19560     19562     19557     19558     19560     19572
     19558     19557     19555     19563     19558     19560     19572     19573
     19558     19560     19572     19574     19558     19560     19572     19575
     19559     19558     19560     19561     19559     19558     19560     19562
     19559     19558     19560     19572     19560     19572     19575     19576
     19560     19572     19575     19577     19560     19572     19575     19578
     19561     19560     19572     19573     19561     19560     19572     19574
     19561     19560     19572     19575     19562     19560     19572     19573
     19562     19560     19572     19574     19562     19560     19572     19575
     19563     19566     19567     19568     19563     19566     19567     19569
     19564     19563     19566     19567     19565     19563     19566     19567
     19566     19567     19569     19570     19566     19567     19569     19571
     19566     19567     19569     19616     19567     19569     19616     19617
     19567     19569     19616     19618     19567     19569     19616     19619
     19568     19567     19569     19570     19568     19567     19569     19571
     19568     19567     19569     19616     19569     19616     19619     19620
     19569     19616     19619     19621     19569     19616     19619     19622
     19570     19569     19616     19617     19570     19569     19616     19618
     19570     19569     19616     19619     19571     19569     19616     19617
     19571     19569     19616     19618     19571     19569     19616     19619
     19572     19575     19578     19579     19572     19575     19578     19580
     19572     19575     19578     19581     19573     19572     19575     19576
     19573     19572     19575     19577     19573     19572     19575     19578
     19574     19572     19575     19576     19574     19572     19575     19577
     19574     19572     19575     19578     19575     19578     19581     19582
     19575     19578     19581     19583     19575     19578     19581     19584
     19576     19575     19578     19579     19576     19575     19578     19580
     19576     19575     19578     19581     19577     19575     19578     19579
     19577     19575     19578     19580     19577     19575     19578     19581
     19578     19581     19584     19585     19578     19581     19584     19586
     19578     19581     19584     19587     19579     19578     19581     19582
     19579     19578     19581     19583     19579     19578     19581     19584
     19580     19578     19581     19582     19580     19578     19581     19583
     19580     19578     19581     19584     19581     19584     19587     19588
     19581     19584     19587     19589     19581     19584     19587     19590
     19582     19581     19584     19585     19582     19581     19584     19586
     19582     19581     19584     19587     19583     19581     19584     19585
     19583     19581     19584     19586     19583     19581     19584     19587
     19584     19587     19590     19591     19584     19587     19590     19592
     19584     19587     19590     19595     19585     19584     19587     19588
     19585     19584     19587     19589     19585     19584     19587     19590
     19586     19584     19587     19588     19586     19584     19587     19589
     19586     19584     19587     19590     19587     19590     19592     19593
     19587     19590     19592     19594     19587     19590     19592     19595
     19587     19590     19595     19592     19587     19590     19595     19596
     19587     19590     19595     19597     19588     19587     19590     19591
     19588     19587     19590     19592     19588     19587     19590     19595
     19589     19587     19590     19591     19589     19587     19590     19592
     19589     19587     19590     19595     19590     19592     19595     19596
     19590     19592     19595     19597     19590     19595     19592     19593
     19590     19595     19592     19594     19590     19595     19597     19598
     19590     19595     19597     19599     19590     19595     19597     19600
     19591     19590     19592     19593     19591     19590     19592     19594
     19591     19590     19592     19595     19591     19590     19595     19592
     19591     19590     19595     19596     19591     19590     19595     19597
     19592     19590     19595     19596     19592     19590     19595     19597
     19592     19595     19597     19598     19592     19595     19597     19599
     19592     19595     19597     19600     19593     19592     19590     19595
     19593     19592     19595     19596     19593     19592     19595     19597
     19594     19592     19590     19595     19594     19592     19595     19596
     19594     19592     19595     19597     19595     19597     19600     19601
     19595     19597     19600     19602     19595     19597     19600     19603
     19596     19595     19597     19598     19596     19595     19597     19599
     19596     19595     19597     19600     19597     19600     19603     19604
     19597     19600     19603     19605     19597     19600     19603     19606
     19598     19597     19600     19601     19598     19597     19600     19602
     19598     19597     19600     19603     19599     19597     19600     19601
     19599     19597     19600     19602     19599     19597     19600     19603
     19600     19603     19606     19607     19600     19603     19606     19608
     19600     19603     19606     19609     19601     19600     19603     19604
     19601     19600     19603     19605     19601     19600     19603     19606
     19602     19600     19603     19604     19602     19600     19603     19605
     19602     19600     19603     19606     19603     19606     19609     19610
     19603     19606     19609     19611     19603     19606     19609     19612
     19604     19603     19606     19607     19604     19603     19606     19608
     19604     19603     19606     19609     19605     19603     19606     19607
     19605     19603     19606     19608     19605     19603     19606     19609
     19606     19609     19612     19613     19606     19609     19612     19614
     19606     19609     19612     19615     19607     19606     19609     19610
     19607     19606     19609     19611     19607     19606     19609     19612
     19608     19606     19609     19610     19608     19606     19609     19611
     19608     19606     19609     19612     19610     19609     19612     19613
     19610     19609     19612     19614     19610     19609     19612     19615
     19611     19609     19612     19613     19611     19609     19612     19614
     19611     19609     19612     19615     19616     19619     19622     19623
     19616     19619     19622     19624     19616     19619     19622     19625
     19617     19616     19619     19620     19617     19616     19619     19621
     19617     19616     19619     19622     19618     19616     19619     19620
     19618     19616     19619     19621     19618     19616     19619     19622
     19619     19622     19625     19626     19619     19622     19625     19627
     19619     19622     19625     19628     19620     19619     19622     19623
     19620     19619     19622     19624     19620     19619     19622     19625
     19621     19619     19622     19623     19621     19619     19622     19624
     19621     19619     19622     19625     19622     19625     19628     19629
     19622     19625     19628     19630     19622     19625     19628     19631
     19623     19622     19625     19626     19623     19622     19625     19627
     19623     19622     19625     19628     19624     19622     19625     19626
     19624     19622     19625     19627     19624     19622     19625     19628
     19625     19628     19631     19632     19625     19628     19631     19633
     19625     19628     19631     19634     19626     19625     19628     19629
     19626     19625     19628     19630     19626     19625     19628     19631
     19627     19625     19628     19629     19627     19625     19628     19630
     19627     19625     19628     19631     19628     19631     19634     19635
     19628     19631     19634     19636     19628     19631     19634     19637
     19629     19628     19631     19632     19629     19628     19631     19633
     19629     19628     19631     19634     19630     19628     19631     19632
     19630     19628     19631     19633     19630     19628     19631     19634
     19631     19634     19637     19638     19631     19634     19637     19639
     19631     19634     19637     19640     19632     19631     19634     19635
     19632     19631     19634     19636     19632     19631     19634     19637
     19633     19631     19634     19635     19633     19631     19634     19636
     19633     19631     19634     19637     19634     19637     19640     19641
     19634     19637     19640     19642     19634     19637     19640     19643
     19635     19634     19637     19638     19635     19634     19637     19639
     19635     19634     19637     19640     19636     19634     19637     19638
     19636     19634     19637     19639     19636     19634     19637     19640
     19637     19640     19643     19644     19637     19640     19643     19645
     19637     19640     19643     19646     19638     19637     19640     19641
     19638     19637     19640     19642     19638     19637     19640     19643
     19639     19637     19640     19641     19639     19637     19640     19642
     19639     19637     19640     19643     19640     19643     19646     19647
     19640     19643     19646     19648     19640     19643     19646     19649
     19641     19640     19643     19644     19641     19640     19643     19645
     19641     19640     19643     19646     19642     19640     19643     19644
     19642     19640     19643     19645     19642     19640     19643     19646
     19643     19646     19649     19650     19643     19646     19649     19651
     19643     19646     19649     19652     19644     19643     19646     19647
     19644     19643     19646     19648     19644     19643     19646     19649
     19645     19643     19646     19647     19645     19643     19646     19648
     19645     19643     19646     19649     19646     19649     19652     19653
     19646     19649     19652     19654     19646     19649     19652     19655
     19647     19646     19649     19650     19647     19646     19649     19651
     19647     19646     19649     19652     19648     19646     19649     19650
     19648     19646     19649     19651     19648     19646     19649     19652
     19649     19652     19655     19656     19649     19652     19655     19657
     19649     19652     19655     19658     19650     19649     19652     19653
     19650     19649     19652     19654     19650     19649     19652     19655
     19651     19649     19652     19653     19651     19649     19652     19654
     19651     19649     19652     19655     19653     19652     19655     19656
     19653     19652     19655     19657     19653     19652     19655     19658
     19654     19652     19655     19656     19654     19652     19655     19657
     19654     19652     19655     19658     19659     19663     19666     19667
     19659     19663     19666     19668     19659     19663     19666     19673
     19660     19659     19663     19664     19660     19659     19663     19665
     19660     19659     19663     19666     19661     19659     19663     19664
     19661     19659     19663     19665     19661     19659     19663     19666
     19662     19659     19663     19664     19662     19659     19663     19665
     19662     19659     19663     19666     19663     19666     19673     19669
     19664     19663     19666     19667     19664     19663     19666     19668
     19664     19663     19666     19673     19665     19663     19666     19667
     19665     19663     19666     19668     19665     19663     19666     19673
     19666     19673     19669     19670     19666     19673     19669     19671
     19666     19673     19669     19672     19667     19666     19673     19669
     19668     19666     19673     19669     19669     19672     19674     19675
     19669     19672     19674     19676     19669     19672     19674     19677
     19670     19669     19672     19674     19671     19669     19672     19674
     19672     19674     19677     19678     19672     19674     19677     19679
     19672     19674     19677     19685     19673     19669     19672     19674
     19674     19677     19679     19680     19674     19677     19685     19686
     19674     19677     19685     19687     19674     19677     19685     19688
     19675     19674     19677     19678     19675     19674     19677     19679
     19675     19674     19677     19685     19676     19674     19677     19678
     19676     19674     19677     19679     19676     19674     19677     19685
     19677     19679     19680     19681     19677     19679     19680     19682
     19677     19685     19688     19689     19678     19677     19679     19680
     19678     19677     19685     19686     19678     19677     19685     19687
     19678     19677     19685     19688     19679     19677     19685     19686
     19679     19677     19685     19687     19679     19677     19685     19688
     19679     19680     19682     19683     19679     19680     19682     19684
     19679     19680     19682     19694     19680     19679     19677     19685
     19680     19682     19694     19695     19680     19682     19694     19696
     19680     19682     19694     19697     19681     19680     19682     19683
     19681     19680     19682     19684     19681     19680     19682     19694
     19682     19694     19697     19698     19682     19694     19697     19699
     19682     19694     19697     19700     19683     19682     19694     19695
     19683     19682     19694     19696     19683     19682     19694     19697
     19684     19682     19694     19695     19684     19682     19694     19696
     19684     19682     19694     19697     19685     19688     19689     19690
     19685     19688     19689     19691     19686     19685     19688     19689
     19687     19685     19688     19689     19688     19689     19691     19692
     19688     19689     19691     19693     19688     19689     19691     19738
     19689     19691     19738     19739     19689     19691     19738     19740
     19689     19691     19738     19741     19690     19689     19691     19692
     19690     19689     19691     19693     19690     19689     19691     19738
     19691     19738     19741     19742     19691     19738     19741     19743
     19691     19738     19741     19744     19692     19691     19738     19739
     19692     19691     19738     19740     19692     19691     19738     19741
     19693     19691     19738     19739     19693     19691     19738     19740
     19693     19691     19738     19741     19694     19697     19700     19701
     19694     19697     19700     19702     19694     19697     19700     19703
     19695     19694     19697     19698     19695     19694     19697     19699
     19695     19694     19697     19700     19696     19694     19697     19698
     19696     19694     19697     19699     19696     19694     19697     19700
     19697     19700     19703     19704     19697     19700     19703     19705
     19697     19700     19703     19706     19698     19697     19700     19701
     19698     19697     19700     19702     19698     19697     19700     19703
     19699     19697     19700     19701     19699     19697     19700     19702
     19699     19697     19700     19703     19700     19703     19706     19707
     19700     19703     19706     19708     19700     19703     19706     19709
     19701     19700     19703     19704     19701     19700     19703     19705
     19701     19700     19703     19706     19702     19700     19703     19704
     19702     19700     19703     19705     19702     19700     19703     19706
     19703     19706     19709     19710     19703     19706     19709     19711
     19703     19706     19709     19712     19704     19703     19706     19707
     19704     19703     19706     19708     19704     19703     19706     19709
     19705     19703     19706     19707     19705     19703     19706     19708
     19705     19703     19706     19709     19706     19709     19712     19713
     19706     19709     19712     19714     19706     19709     19712     19717
     19707     19706     19709     19710     19707     19706     19709     19711
     19707     19706     19709     19712     19708     19706     19709     19710
     19708     19706     19709     19711     19708     19706     19709     19712
     19709     19712     19714     19715     19709     19712     19714     19716
     19709     19712     19714     19717     19709     19712     19717     19714
     19709     19712     19717     19718     19709     19712     19717     19719
     19710     19709     19712     19713     19710     19709     19712     19714
     19710     19709     19712     19717     19711     19709     19712     19713
     19711     19709     19712     19714     19711     19709     19712     19717
     19712     19714     19717     19718     19712     19714     19717     19719
     19712     19717     19714     19715     19712     19717     19714     19716
     19712     19717     19719     19720     19712     19717     19719     19721
     19712     19717     19719     19722     19713     19712     19714     19715
     19713     19712     19714     19716     19713     19712     19714     19717
     19713     19712     19717     19714     19713     19712     19717     19718
     19713     19712     19717     19719     19714     19712     19717     19718
     19714     19712     19717     19719     19714     19717     19719     19720
     19714     19717     19719     19721     19714     19717     19719     19722
     19715     19714     19712     19717     19715     19714     19717     19718
     19715     19714     19717     19719     19716     19714     19712     19717
     19716     19714     19717     19718     19716     19714     19717     19719
     19717     19719     19722     19723     19717     19719     19722     19724
     19717     19719     19722     19725     19718     19717     19719     19720
     19718     19717     19719     19721     19718     19717     19719     19722
     19719     19722     19725     19726     19719     19722     19725     19727
     19719     19722     19725     19728     19720     19719     19722     19723
     19720     19719     19722     19724     19720     19719     19722     19725
     19721     19719     19722     19723     19721     19719     19722     19724
     19721     19719     19722     19725     19722     19725     19728     19729
     19722     19725     19728     19730     19722     19725     19728     19731
     19723     19722     19725     19726     19723     19722     19725     19727
     19723     19722     19725     19728     19724     19722     19725     19726
     19724     19722     19725     19727     19724     19722     19725     19728
     19725     19728     19731     19732     19725     19728     19731     19733
     19725     19728     19731     19734     19726     19725     19728     19729
     19726     19725     19728     19730     19726     19725     19728     19731
     19727     19725     19728     19729     19727     19725     19728     19730
     19727     19725     19728     19731     19728     19731     19734     19735
     19728     19731     19734     19736     19728     19731     19734     19737
     19729     19728     19731     19732     19729     19728     19731     19733
     19729     19728     19731     19734     19730     19728     19731     19732
     19730     19728     19731     19733     19730     19728     19731     19734
     19732     19731     19734     19735     19732     19731     19734     19736
     19732     19731     19734     19737     19733     19731     19734     19735
     19733     19731     19734     19736     19733     19731     19734     19737
     19738     19741     19744     19745     19738     19741     19744     19746
     19738     19741     19744     19747     19739     19738     19741     19742
     19739     19738     19741     19743     19739     19738     19741     19744
     19740     19738     19741     19742     19740     19738     19741     19743
     19740     19738     19741     19744     19741     19744     19747     19748
     19741     19744     19747     19749     19741     19744     19747     19750
     19742     19741     19744     19745     19742     19741     19744     19746
     19742     19741     19744     19747     19743     19741     19744     19745
     19743     19741     19744     19746     19743     19741     19744     19747
     19744     19747     19750     19751     19744     19747     19750     19752
     19744     19747     19750     19753     19745     19744     19747     19748
     19745     19744     19747     19749     19745     19744     19747     19750
     19746     19744     19747     19748     19746     19744     19747     19749
     19746     19744     19747     19750     19747     19750     19753     19754
     19747     19750     19753     19755     19747     19750     19753     19756
     19748     19747     19750     19751     19748     19747     19750     19752
     19748     19747     19750     19753     19749     19747     19750     19751
     19749     19747     19750     19752     19749     19747     19750     19753
     19750     19753     19756     19757     19750     19753     19756     19758
     19750     19753     19756     19759     19751     19750     19753     19754
     19751     19750     19753     19755     19751     19750     19753     19756
     19752     19750     19753     19754     19752     19750     19753     19755
     19752     19750     19753     19756     19753     19756     19759     19760
     19753     19756     19759     19761     19753     19756     19759     19762
     19754     19753     19756     19757     19754     19753     19756     19758
     19754     19753     19756     19759     19755     19753     19756     19757
     19755     19753     19756     19758     19755     19753     19756     19759
     19756     19759     19762     19763     19756     19759     19762     19764
     19756     19759     19762     19765     19757     19756     19759     19760
     19757     19756     19759     19761     19757     19756     19759     19762
     19758     19756     19759     19760     19758     19756     19759     19761
     19758     19756     19759     19762     19759     19762     19765     19766
     19759     19762     19765     19767     19759     19762     19765     19768
     19760     19759     19762     19763     19760     19759     19762     19764
     19760     19759     19762     19765     19761     19759     19762     19763
     19761     19759     19762     19764     19761     19759     19762     19765
     19762     19765     19768     19769     19762     19765     19768     19770
     19762     19765     19768     19771     19763     19762     19765     19766
     19763     19762     19765     19767     19763     19762     19765     19768
     19764     19762     19765     19766     19764     19762     19765     19767
     19764     19762     19765     19768     19765     19768     19771     19772
     19765     19768     19771     19773     19765     19768     19771     19774
     19766     19765     19768     19769     19766     19765     19768     19770
     19766     19765     19768     19771     19767     19765     19768     19769
     19767     19765     19768     19770     19767     19765     19768     19771
     19768     19771     19774     19775     19768     19771     19774     19776
     19768     19771     19774     19777     19769     19768     19771     19772
     19769     19768     19771     19773     19769     19768     19771     19774
     19770     19768     19771     19772     19770     19768     19771     19773
     19770     19768     19771     19774     19772     19771     19774     19775
     19772     19771     19774     19776     19772     19771     19774     19777
     19773     19771     19774     19775     19773     19771     19774     19776
     19773     19771     19774     19777     19778     19782     19785     19786
     19778     19782     19785     19787     19778     19782     19785     19792
     19779     19778     19782     19783     19779     19778     19782     19784
     19779     19778     19782     19785     19780     19778     19782     19783
     19780     19778     19782     19784     19780     19778     19782     19785
     19781     19778     19782     19783     19781     19778     19782     19784
     19781     19778     19782     19785     19782     19785     19792     19788
     19783     19782     19785     19786     19783     19782     19785     19787
     19783     19782     19785     19792     19784     19782     19785     19786
     19784     19782     19785     19787     19784     19782     19785     19792
     19785     19792     19788     19789     19785     19792     19788     19790
     19785     19792     19788     19791     19786     19785     19792     19788
     19787     19785     19792     19788     19788     19791     19793     19794
     19788     19791     19793     19795     19788     19791     19793     19796
     19789     19788     19791     19793     19790     19788     19791     19793
     19791     19793     19796     19797     19791     19793     19796     19798
     19791     19793     19796     19804     19792     19788     19791     19793
     19793     19796     19798     19799     19793     19796     19804     19805
     19793     19796     19804     19806     19793     19796     19804     19807
     19794     19793     19796     19797     19794     19793     19796     19798
     19794     19793     19796     19804     19795     19793     19796     19797
     19795     19793     19796     19798     19795     19793     19796     19804
     19796     19798     19799     19800     19796     19798     19799     19801
     19796     19804     19807     19808     19797     19796     19798     19799
     19797     19796     19804     19805     19797     19796     19804     19806
     19797     19796     19804     19807     19798     19796     19804     19805
     19798     19796     19804     19806     19798     19796     19804     19807
     19798     19799     19801     19802     19798     19799     19801     19803
     19798     19799     19801     19813     19799     19798     19796     19804
     19799     19801     19813     19814     19799     19801     19813     19815
     19799     19801     19813     19816     19800     19799     19801     19802
     19800     19799     19801     19803     19800     19799     19801     19813
     19801     19813     19816     19817     19801     19813     19816     19818
     19801     19813     19816     19819     19802     19801     19813     19814
     19802     19801     19813     19815     19802     19801     19813     19816
     19803     19801     19813     19814     19803     19801     19813     19815
     19803     19801     19813     19816     19804     19807     19808     19809
     19804     19807     19808     19810     19805     19804     19807     19808
     19806     19804     19807     19808     19807     19808     19810     19811
     19807     19808     19810     19812     19807     19808     19810     19857
     19808     19810     19857     19858     19808     19810     19857     19859
     19808     19810     19857     19860     19809     19808     19810     19811
     19809     19808     19810     19812     19809     19808     19810     19857
     19810     19857     19860     19861     19810     19857     19860     19862
     19810     19857     19860     19863     19811     19810     19857     19858
     19811     19810     19857     19859     19811     19810     19857     19860
     19812     19810     19857     19858     19812     19810     19857     19859
     19812     19810     19857     19860     19813     19816     19819     19820
     19813     19816     19819     19821     19813     19816     19819     19822
     19814     19813     19816     19817     19814     19813     19816     19818
     19814     19813     19816     19819     19815     19813     19816     19817
     19815     19813     19816     19818     19815     19813     19816     19819
     19816     19819     19822     19823     19816     19819     19822     19824
     19816     19819     19822     19825     19817     19816     19819     19820
     19817     19816     19819     19821     19817     19816     19819     19822
     19818     19816     19819     19820     19818     19816     19819     19821
     19818     19816     19819     19822     19819     19822     19825     19826
     19819     19822     19825     19827     19819     19822     19825     19828
     19820     19819     19822     19823     19820     19819     19822     19824
     19820     19819     19822     19825     19821     19819     19822     19823
     19821     19819     19822     19824     19821     19819     19822     19825
     19822     19825     19828     19829     19822     19825     19828     19830
     19822     19825     19828     19831     19823     19822     19825     19826
     19823     19822     19825     19827     19823     19822     19825     19828
     19824     19822     19825     19826     19824     19822     19825     19827
     19824     19822     19825     19828     19825     19828     19831     19832
     19825     19828     19831     19833     19825     19828     19831     19836
     19826     19825     19828     19829     19826     19825     19828     19830
     19826     19825     19828     19831     19827     19825     19828     19829
     19827     19825     19828     19830     19827     19825     19828     19831
     19828     19831     19833     19834     19828     19831     19833     19835
     19828     19831     19833     19836     19828     19831     19836     19833
     19828     19831     19836     19837     19828     19831     19836     19838
     19829     19828     19831     19832     19829     19828     19831     19833
     19829     19828     19831     19836     19830     19828     19831     19832
     19830     19828     19831     19833     19830     19828     19831     19836
     19831     19833     19836     19837     19831     19833     19836     19838
     19831     19836     19833     19834     19831     19836     19833     19835
     19831     19836     19838     19839     19831     19836     19838     19840
     19831     19836     19838     19841     19832     19831     19833     19834
     19832     19831     19833     19835     19832     19831     19833     19836
     19832     19831     19836     19833     19832     19831     19836     19837
     19832     19831     19836     19838     19833     19831     19836     19837
     19833     19831     19836     19838     19833     19836     19838     19839
     19833     19836     19838     19840     19833     19836     19838     19841
     19834     19833     19831     19836     19834     19833     19836     19837
     19834     19833     19836     19838     19835     19833     19831     19836
     19835     19833     19836     19837     19835     19833     19836     19838
     19836     19838     19841     19842     19836     19838     19841     19843
     19836     19838     19841     19844     19837     19836     19838     19839
     19837     19836     19838     19840     19837     19836     19838     19841
     19838     19841     19844     19845     19838     19841     19844     19846
     19838     19841     19844     19847     19839     19838     19841     19842
     19839     19838     19841     19843     19839     19838     19841     19844
     19840     19838     19841     19842     19840     19838     19841     19843
     19840     19838     19841     19844     19841     19844     19847     19848
     19841     19844     19847     19849     19841     19844     19847     19850
     19842     19841     19844     19845     19842     19841     19844     19846
     19842     19841     19844     19847     19843     19841     19844     19845
     19843     19841     19844     19846     19843     19841     19844     19847
     19844     19847     19850     19851     19844     19847     19850     19852
     19844     19847     19850     19853     19845     19844     19847     19848
     19845     19844     19847     19849     19845     19844     19847     19850
     19846     19844     19847     19848     19846     19844     19847     19849
     19846     19844     19847     19850     19847     19850     19853     19854
     19847     19850     19853     19855     19847     19850     19853     19856
     19848     19847     19850     19851     19848     19847     19850     19852
     19848     19847     19850     19853     19849     19847     19850     19851
     19849     19847     19850     19852     19849     19847     19850     19853
     19851     19850     19853     19854     19851     19850     19853     19855
     19851     19850     19853     19856     19852     19850     19853     19854
     19852     19850     19853     19855     19852     19850     19853     19856
     19857     19860     19863     19864     19857     19860     19863     19865
     19857     19860     19863     19866     19858     19857     19860     19861
     19858     19857     19860     19862     19858     19857     19860     19863
     19859     19857     19860     19861     19859     19857     19860     19862
     19859     19857     19860     19863     19860     19863     19866     19867
     19860     19863     19866     19868     19860     19863     19866     19869
     19861     19860     19863     19864     19861     19860     19863     19865
     19861     19860     19863     19866     19862     19860     19863     19864
     19862     19860     19863     19865     19862     19860     19863     19866
     19863     19866     19869     19870     19863     19866     19869     19871
     19863     19866     19869     19872     19864     19863     19866     19867
     19864     19863     19866     19868     19864     19863     19866     19869
     19865     19863     19866     19867     19865     19863     19866     19868
     19865     19863     19866     19869     19866     19869     19872     19873
     19866     19869     19872     19874     19866     19869     19872     19875
     19867     19866     19869     19870     19867     19866     19869     19871
     19867     19866     19869     19872     19868     19866     19869     19870
     19868     19866     19869     19871     19868     19866     19869     19872
     19869     19872     19875     19876     19869     19872     19875     19877
     19869     19872     19875     19878     19870     19869     19872     19873
     19870     19869     19872     19874     19870     19869     19872     19875
     19871     19869     19872     19873     19871     19869     19872     19874
     19871     19869     19872     19875     19872     19875     19878     19879
     19872     19875     19878     19880     19872     19875     19878     19881
     19873     19872     19875     19876     19873     19872     19875     19877
     19873     19872     19875     19878     19874     19872     19875     19876
     19874     19872     19875     19877     19874     19872     19875     19878
     19875     19878     19881     19882     19875     19878     19881     19883
     19875     19878     19881     19884     19876     19875     19878     19879
     19876     19875     19878     19880     19876     19875     19878     19881
     19877     19875     19878     19879     19877     19875     19878     19880
     19877     19875     19878     19881     19878     19881     19884     19885
     19878     19881     19884     19886     19878     19881     19884     19887
     19879     19878     19881     19882     19879     19878     19881     19883
     19879     19878     19881     19884     19880     19878     19881     19882
     19880     19878     19881     19883     19880     19878     19881     19884
     19881     19884     19887     19888     19881     19884     19887     19889
     19881     19884     19887     19890     19882     19881     19884     19885
     19882     19881     19884     19886     19882     19881     19884     19887
     19883     19881     19884     19885     19883     19881     19884     19886
     19883     19881     19884     19887     19884     19887     19890     19891
     19884     19887     19890     19892     19884     19887     19890     19893
     19885     19884     19887     19888     19885     19884     19887     19889
     19885     19884     19887     19890     19886     19884     19887     19888
     19886     19884     19887     19889     19886     19884     19887     19890
     19887     19890     19893     19894     19887     19890     19893     19895
     19887     19890     19893     19896     19888     19887     19890     19891
     19888     19887     19890     19892     19888     19887     19890     19893
     19889     19887     19890     19891     19889     19887     19890     19892
     19889     19887     19890     19893     19890     19893     19896     19897
     19890     19893     19896     19898     19890     19893     19896     19899
     19891     19890     19893     19894     19891     19890     19893     19895
     19891     19890     19893     19896     19892     19890     19893     19894
     19892     19890     19893     19895     19892     19890     19893     19896
     19894     19893     19896     19897     19894     19893     19896     19898
     19894     19893     19896     19899     19895     19893     19896     19897
     19895     19893     19896     19898     19895     19893     19896     19899
     19900     19904     19907     19908     19900     19904     19907     19909
     19900     19904     19907     19914     19901     19900     19904     19905
     19901     19900     19904     19906     19901     19900     19904     19907
     19902     19900     19904     19905     19902     19900     19904     19906
     19902     19900     19904     19907     19903     19900     19904     19905
     19903     19900     19904     19906     19903     19900     19904     19907
     19904     19907     19914     19910     19905     19904     19907     19908
     19905     19904     19907     19909     19905     19904     19907     19914
     19906     19904     19907     19908     19906     19904     19907     19909
     19906     19904     19907     19914     19907     19914     19910     19911
     19907     19914     19910     19912     19907     19914     19910     19913
     19908     19907     19914     19910     19909     19907     19914     19910
     19910     19913     19915     19916     19910     19913     19915     19917
     19910     19913     19915     19918     19911     19910     19913     19915
     19912     19910     19913     19915     19913     19915     19918     19919
     19913     19915     19918     19920     19913     19915     19918     19926
     19914     19910     19913     19915     19915     19918     19920     19921
     19915     19918     19926     19927     19915     19918     19926     19928
     19915     19918     19926     19929     19916     19915     19918     19919
     19916     19915     19918     19920     19916     19915     19918     19926
     19917     19915     19918     19919     19917     19915     19918     19920
     19917     19915     19918     19926     19918     19920     19921     19922
     19918     19920     19921     19923     19918     19926     19929     19930
     19919     19918     19920     19921     19919     19918     19926     19927
     19919     19918     19926     19928     19919     19918     19926     19929
     19920     19918     19926     19927     19920     19918     19926     19928
     19920     19918     19926     19929     19920     19921     19923     19924
     19920     19921     19923     19925     19920     19921     19923     19935
     19921     19920     19918     19926     19921     19923     19935     19936
     19921     19923     19935     19937     19921     19923     19935     19938
     19922     19921     19923     19924     19922     19921     19923     19925
     19922     19921     19923     19935     19923     19935     19938     19939
     19923     19935     19938     19940     19923     19935     19938     19941
     19924     19923     19935     19936     19924     19923     19935     19937
     19924     19923     19935     19938     19925     19923     19935     19936
     19925     19923     19935     19937     19925     19923     19935     19938
     19926     19929     19930     19931     19926     19929     19930     19932
     19927     19926     19929     19930     19928     19926     19929     19930
     19929     19930     19932     19933     19929     19930     19932     19934
     19929     19930     19932     19979     19930     19932     19979     19980
     19930     19932     19979     19981     19930     19932     19979     19982
     19931     19930     19932     19933     19931     19930     19932     19934
     19931     19930     19932     19979     19932     19979     19982     19983
     19932     19979     19982     19984     19932     19979     19982     19985
     19933     19932     19979     19980     19933     19932     19979     19981
     19933     19932     19979     19982     19934     19932     19979     19980
     19934     19932     19979     19981     19934     19932     19979     19982
     19935     19938     19941     19942     19935     19938     19941     19943
     19935     19938     19941     19944     19936     19935     19938     19939
     19936     19935     19938     19940     19936     19935     19938     19941
     19937     19935     19938     19939     19937     19935     19938     19940
     19937     19935     19938     19941     19938     19941     19944     19945
     19938     19941     19944     19946     19938     19941     19944     19947
     19939     19938     19941     19942     19939     19938     19941     19943
     19939     19938     19941     19944     19940     19938     19941     19942
     19940     19938     19941     19943     19940     19938     19941     19944
     19941     19944     19947     19948     19941     19944     19947     19949
     19941     19944     19947     19950     19942     19941     19944     19945
     19942     19941     19944     19946     19942     19941     19944     19947
     19943     19941     19944     19945     19943     19941     19944     19946
     19943     19941     19944     19947     19944     19947     19950     19951
     19944     19947     19950     19952     19944     19947     19950     19953
     19945     19944     19947     19948     19945     19944     19947     19949
     19945     19944     19947     19950     19946     19944     19947     19948
     19946     19944     19947     19949     19946     19944     19947     19950
     19947     19950     19953     19954     19947     19950     19953     19955
     19947     19950     19953     19958     19948     19947     19950     19951
     19948     19947     19950     19952     19948     19947     19950     19953
     19949     19947     19950     19951     19949     19947     19950     19952
     19949     19947     19950     19953     19950     19953     19955     19956
     19950     19953     19955     19957     19950     19953     19955     19958
     19950     19953     19958     19955     19950     19953     19958     19959
     19950     19953     19958     19960     19951     19950     19953     19954
     19951     19950     19953     19955     19951     19950     19953     19958
     19952     19950     19953     19954     19952     19950     19953     19955
     19952     19950     19953     19958     19953     19955     19958     19959
     19953     19955     19958     19960     19953     19958     19955     19956
     19953     19958     19955     19957     19953     19958     19960     19961
     19953     19958     19960     19962     19953     19958     19960     19963
     19954     19953     19955     19956     19954     19953     19955     19957
     19954     19953     19955     19958     19954     19953     19958     19955
     19954     19953     19958     19959     19954     19953     19958     19960
     19955     19953     19958     19959     19955     19953     19958     19960
     19955     19958     19960     19961     19955     19958     19960     19962
     19955     19958     19960     19963     19956     19955     19953     19958
     19956     19955     19958     19959     19956     19955     19958     19960
     19957     19955     19953     19958     19957     19955     19958     19959
     19957     19955     19958     19960     19958     19960     19963     19964
     19958     19960     19963     19965     19958     19960     19963     19966
     19959     19958     19960     19961     19959     19958     19960     19962
     19959     19958     19960     19963     19960     19963     19966     19967
     19960     19963     19966     19968     19960     19963     19966     19969
     19961     19960     19963     19964     19961     19960     19963     19965
     19961     19960     19963     19966     19962     19960     19963     19964
     19962     19960     19963     19965     19962     19960     19963     19966
     19963     19966     19969     19970     19963     19966     19969     19971
     19963     19966     19969     19972     19964     19963     19966     19967
     19964     19963     19966     19968     19964     19963     19966     19969
     19965     19963     19966     19967     19965     19963     19966     19968
     19965     19963     19966     19969     19966     19969     19972     19973
     19966     19969     19972     19974     19966     19969     19972     19975
     19967     19966     19969     19970     19967     19966     19969     19971
     19967     19966     19969     19972     19968     19966     19969     19970
     19968     19966     19969     19971     19968     19966     19969     19972
     19969     19972     19975     19976     19969     19972     19975     19977
     19969     19972     19975     19978     19970     19969     19972     19973
     19970     19969     19972     19974     19970     19969     19972     19975
     19971     19969     19972     19973     19971     19969     19972     19974
     19971     19969     19972     19975     19973     19972     19975     19976
     19973     19972     19975     19977     19973     19972     19975     19978
     19974     19972     19975     19976     19974     19972     19975     19977
     19974     19972     19975     19978     19979     19982     19985     19986
     19979     19982     19985     19987     19979     19982     19985     19988
     19980     19979     19982     19983     19980     19979     19982     19984
     19980     19979     19982     19985     19981     19979     19982     19983
     19981     19979     19982     19984     19981     19979     19982     19985
     19982     19985     19988     19989     19982     19985     19988     19990
     19982     19985     19988     19991     19983     19982     19985     19986
     19983     19982     19985     19987     19983     19982     19985     19988
     19984     19982     19985     19986     19984     19982     19985     19987
     19984     19982     19985     19988     19985     19988     19991     19992
     19985     19988     19991     19993     19985     19988     19991     19994
     19986     19985     19988     19989     19986     19985     19988     19990
     19986     19985     19988     19991     19987     19985     19988     19989
     19987     19985     19988     19990     19987     19985     19988     19991
     19988     19991     19994     19995     19988     19991     19994     19996
     19988     19991     19994     19997     19989     19988     19991     19992
     19989     19988     19991     19993     19989     19988     19991     19994
     19990     19988     19991     19992     19990     19988     19991     19993
     19990     19988     19991     19994     19991     19994     19997     19998
     19991     19994     19997     19999     19991     19994     19997     20000
     19992     19991     19994     19995     19992     19991     19994     19996
     19992     19991     19994     19997     19993     19991     19994     19995
     19993     19991     19994     19996     19993     19991     19994     19997
     19994     19997     20000     20001     19994     19997     20000     20002
     19994     19997     20000     20003     19995     19994     19997     19998
     19995     19994     19997     19999     19995     19994     19997     20000
     19996     19994     19997     19998     19996     19994     19997     19999
     19996     19994     19997     20000     19997     20000     20003     20004
     19997     20000     20003     20005     19997     20000     20003     20006
     19998     19997     20000     20001     19998     19997     20000     20002
     19998     19997     20000     20003     19999     19997     20000     20001
     19999     19997     20000     20002     19999     19997     20000     20003
     20000     20003     20006     20007     20000     20003     20006     20008
     20000     20003     20006     20009     20001     20000     20003     20004
     20001     20000     20003     20005     20001     20000     20003     20006
     20002     20000     20003     20004     20002     20000     20003     20005
     20002     20000     20003     20006     20003     20006     20009     20010
     20003     20006     20009     20011     20003     20006     20009     20012
     20004     20003     20006     20007     20004     20003     20006     20008
     20004     20003     20006     20009     20005     20003     20006     20007
     20005     20003     20006     20008     20005     20003     20006     20009
     20006     20009     20012     20013     20006     20009     20012     20014
     20006     20009     20012     20015     20007     20006     20009     20010
     20007     20006     20009     20011     20007     20006     20009     20012
     20008     20006     20009     20010     20008     20006     20009     20011
     20008     20006     20009     20012     20009     20012     20015     20016
     20009     20012     20015     20017     20009     20012     20015     20018
     20010     20009     20012     20013     20010     20009     20012     20014
     20010     20009     20012     20015     20011     20009     20012     20013
     20011     20009     20012     20014     20011     20009     20012     20015
     20012     20015     20018     20019     20012     20015     20018     20020
     20012     20015     20018     20021     20013     20012     20015     20016
     20013     20012     20015     20017     20013     20012     20015     20018
     20014     20012     20015     20016     20014     20012     20015     20017
     20014     20012     20015     20018     20016     20015     20018     20019
     20016     20015     20018     20020     20016     20015     20018     20021
     20017     20015     20018     20019     20017     20015     20018     20020
     20017     20015     20018     20021     20022     20026     20029     20030
     20022     20026     20029     20031     20022     20026     20029     20036
     20023     20022     20026     20027     20023     20022     20026     20028
     20023     20022     20026     20029     20024     20022     20026     20027
     20024     20022     20026     20028     20024     20022     20026     20029
     20025     20022     20026     20027     20025     20022     20026     20028
     20025     20022     20026     20029     20026     20029     20036     20032
     20027     20026     20029     20030     20027     20026     20029     20031
     20027     20026     20029     20036     20028     20026     20029     20030
     20028     20026     20029     20031     20028     20026     20029     20036
     20029     20036     20032     20033     20029     20036     20032     20034
     20029     20036     20032     20035     20030     20029     20036     20032
     20031     20029     20036     20032     20032     20035     20037     20038
     20032     20035     20037     20039     20032     20035     20037     20040
     20033     20032     20035     20037     20034     20032     20035     20037
     20035     20037     20040     20041     20035     20037     20040     20042
     20035     20037     20040     20048     20036     20032     20035     20037
     20037     20040     20042     20043     20037     20040     20048     20049
     20037     20040     20048     20050     20037     20040     20048     20051
     20038     20037     20040     20041     20038     20037     20040     20042
     20038     20037     20040     20048     20039     20037     20040     20041
     20039     20037     20040     20042     20039     20037     20040     20048
     20040     20042     20043     20044     20040     20042     20043     20045
     20040     20048     20051     20052     20041     20040     20042     20043
     20041     20040     20048     20049     20041     20040     20048     20050
     20041     20040     20048     20051     20042     20040     20048     20049
     20042     20040     20048     20050     20042     20040     20048     20051
     20042     20043     20045     20046     20042     20043     20045     20047
     20042     20043     20045     20057     20043     20042     20040     20048
     20043     20045     20057     20058     20043     20045     20057     20059
     20043     20045     20057     20060     20044     20043     20045     20046
     20044     20043     20045     20047     20044     20043     20045     20057
     20045     20057     20060     20061     20045     20057     20060     20062
     20045     20057     20060     20063     20046     20045     20057     20058
     20046     20045     20057     20059     20046     20045     20057     20060
     20047     20045     20057     20058     20047     20045     20057     20059
     20047     20045     20057     20060     20048     20051     20052     20053
     20048     20051     20052     20054     20049     20048     20051     20052
     20050     20048     20051     20052     20051     20052     20054     20055
     20051     20052     20054     20056     20051     20052     20054     20101
     20052     20054     20101     20102     20052     20054     20101     20103
     20052     20054     20101     20104     20053     20052     20054     20055
     20053     20052     20054     20056     20053     20052     20054     20101
     20054     20101     20104     20105     20054     20101     20104     20106
     20054     20101     20104     20107     20055     20054     20101     20102
     20055     20054     20101     20103     20055     20054     20101     20104
     20056     20054     20101     20102     20056     20054     20101     20103
     20056     20054     20101     20104     20057     20060     20063     20064
     20057     20060     20063     20065     20057     20060     20063     20066
     20058     20057     20060     20061     20058     20057     20060     20062
     20058     20057     20060     20063     20059     20057     20060     20061
     20059     20057     20060     20062     20059     20057     20060     20063
     20060     20063     20066     20067     20060     20063     20066     20068
     20060     20063     20066     20069     20061     20060     20063     20064
     20061     20060     20063     20065     20061     20060     20063     20066
     20062     20060     20063     20064     20062     20060     20063     20065
     20062     20060     20063     20066     20063     20066     20069     20070
     20063     20066     20069     20071     20063     20066     20069     20072
     20064     20063     20066     20067     20064     20063     20066     20068
     20064     20063     20066     20069     20065     20063     20066     20067
     20065     20063     20066     20068     20065     20063     20066     20069
     20066     20069     20072     20073     20066     20069     20072     20074
     20066     20069     20072     20075     20067     20066     20069     20070
     20067     20066     20069     20071     20067     20066     20069     20072
     20068     20066     20069     20070     20068     20066     20069     20071
     20068     20066     20069     20072     20069     20072     20075     20076
     20069     20072     20075     20077     20069     20072     20075     20080
     20070     20069     20072     20073     20070     20069     20072     20074
     20070     20069     20072     20075     20071     20069     20072     20073
     20071     20069     20072     20074     20071     20069     20072     20075
     20072     20075     20077     20078     20072     20075     20077     20079
     20072     20075     20077     20080     20072     20075     20080     20077
     20072     20075     20080     20081     20072     20075     20080     20082
     20073     20072     20075     20076     20073     20072     20075     20077
     20073     20072     20075     20080     20074     20072     20075     20076
     20074     20072     20075     20077     20074     20072     20075     20080
     20075     20077     20080     20081     20075     20077     20080     20082
     20075     20080     20077     20078     20075     20080     20077     20079
     20075     20080     20082     20083     20075     20080     20082     20084
     20075     20080     20082     20085     20076     20075     20077     20078
     20076     20075     20077     20079     20076     20075     20077     20080
     20076     20075     20080     20077     20076     20075     20080     20081
     20076     20075     20080     20082     20077     20075     20080     20081
     20077     20075     20080     20082     20077     20080     20082     20083
     20077     20080     20082     20084     20077     20080     20082     20085
     20078     20077     20075     20080     20078     20077     20080     20081
     20078     20077     20080     20082     20079     20077     20075     20080
     20079     20077     20080     20081     20079     20077     20080     20082
     20080     20082     20085     20086     20080     20082     20085     20087
     20080     20082     20085     20088     20081     20080     20082     20083
     20081     20080     20082     20084     20081     20080     20082     20085
     20082     20085     20088     20089     20082     20085     20088     20090
     20082     20085     20088     20091     20083     20082     20085     20086
     20083     20082     20085     20087     20083     20082     20085     20088
     20084     20082     20085     20086     20084     20082     20085     20087
     20084     20082     20085     20088     20085     20088     20091     20092
     20085     20088     20091     20093     20085     20088     20091     20094
     20086     20085     20088     20089     20086     20085     20088     20090
     20086     20085     20088     20091     20087     20085     20088     20089
     20087     20085     20088     20090     20087     20085     20088     20091
     20088     20091     20094     20095     20088     20091     20094     20096
     20088     20091     20094     20097     20089     20088     20091     20092
     20089     20088     20091     20093     20089     20088     20091     20094
     20090     20088     20091     20092     20090     20088     20091     20093
     20090     20088     20091     20094     20091     20094     20097     20098
     20091     20094     20097     20099     20091     20094     20097     20100
     20092     20091     20094     20095     20092     20091     20094     20096
     20092     20091     20094     20097     20093     20091     20094     20095
     20093     20091     20094     20096     20093     20091     20094     20097
     20095     20094     20097     20098     20095     20094     20097     20099
     20095     20094     20097     20100     20096     20094     20097     20098
     20096     20094     20097     20099     20096     20094     20097     20100
     20101     20104     20107     20108     20101     20104     20107     20109
     20101     20104     20107     20110     20102     20101     20104     20105
     20102     20101     20104     20106     20102     20101     20104     20107
     20103     20101     20104     20105     20103     20101     20104     20106
     20103     20101     20104     20107     20104     20107     20110     20111
     20104     20107     20110     20112     20104     20107     20110     20113
     20105     20104     20107     20108     20105     20104     20107     20109
     20105     20104     20107     20110     20106     20104     20107     20108
     20106     20104     20107     20109     20106     20104     20107     20110
     20107     20110     20113     20114     20107     20110     20113     20115
     20107     20110     20113     20116     20108     20107     20110     20111
     20108     20107     20110     20112     20108     20107     20110     20113
     20109     20107     20110     20111     20109     20107     20110     20112
     20109     20107     20110     20113     20110     20113     20116     20117
     20110     20113     20116     20118     20110     20113     20116     20119
     20111     20110     20113     20114     20111     20110     20113     20115
     20111     20110     20113     20116     20112     20110     20113     20114
     20112     20110     20113     20115     20112     20110     20113     20116
     20113     20116     20119     20120     20113     20116     20119     20121
     20113     20116     20119     20122     20114     20113     20116     20117
     20114     20113     20116     20118     20114     20113     20116     20119
     20115     20113     20116     20117     20115     20113     20116     20118
     20115     20113     20116     20119     20116     20119     20122     20123
     20116     20119     20122     20124     20116     20119     20122     20125
     20117     20116     20119     20120     20117     20116     20119     20121
     20117     20116     20119     20122     20118     20116     20119     20120
     20118     20116     20119     20121     20118     20116     20119     20122
     20119     20122     20125     20126     20119     20122     20125     20127
     20119     20122     20125     20128     20120     20119     20122     20123
     20120     20119     20122     20124     20120     20119     20122     20125
     20121     20119     20122     20123     20121     20119     20122     20124
     20121     20119     20122     20125     20122     20125     20128     20129
     20122     20125     20128     20130     20122     20125     20128     20131
     20123     20122     20125     20126     20123     20122     20125     20127
     20123     20122     20125     20128     20124     20122     20125     20126
     20124     20122     20125     20127     20124     20122     20125     20128
     20125     20128     20131     20132     20125     20128     20131     20133
     20125     20128     20131     20134     20126     20125     20128     20129
     20126     20125     20128     20130     20126     20125     20128     20131
     20127     20125     20128     20129     20127     20125     20128     20130
     20127     20125     20128     20131     20128     20131     20134     20135
     20128     20131     20134     20136     20128     20131     20134     20137
     20129     20128     20131     20132     20129     20128     20131     20133
     20129     20128     20131     20134     20130     20128     20131     20132
     20130     20128     20131     20133     20130     20128     20131     20134
     20131     20134     20137     20138     20131     20134     20137     20139
     20131     20134     20137     20140     20132     20131     20134     20135
     20132     20131     20134     20136     20132     20131     20134     20137
     20133     20131     20134     20135     20133     20131     20134     20136
     20133     20131     20134     20137     20134     20137     20140     20141
     20134     20137     20140     20142     20134     20137     20140     20143
     20135     20134     20137     20138     20135     20134     20137     20139
     20135     20134     20137     20140     20136     20134     20137     20138
     20136     20134     20137     20139     20136     20134     20137     20140
     20138     20137     20140     20141     20138     20137     20140     20142
     20138     20137     20140     20143     20139     20137     20140     20141
     20139     20137     20140     20142     20139     20137     20140     20143
     20144     20148     20151     20152     20144     20148     20151     20153
     20144     20148     20151     20158     20145     20144     20148     20149
     20145     20144     20148     20150     20145     20144     20148     20151
     20146     20144     20148     20149     20146     20144     20148     20150
     20146     20144     20148     20151     20147     20144     20148     20149
     20147     20144     20148     20150     20147     20144     20148     20151
     20148     20151     20158     20154     20149     20148     20151     20152
     20149     20148     20151     20153     20149     20148     20151     20158
     20150     20148     20151     20152     20150     20148     20151     20153
     20150     20148     20151     20158     20151     20158     20154     20155
     20151     20158     20154     20156     20151     20158     20154     20157
     20152     20151     20158     20154     20153     20151     20158     20154
     20154     20157     20159     20160     20154     20157     20159     20161
     20154     20157     20159     20162     20155     20154     20157     20159
     20156     20154     20157     20159     20157     20159     20162     20163
     20157     20159     20162     20164     20157     20159     20162     20170
     20158     20154     20157     20159     20159     20162     20164     20165
     20159     20162     20170     20171     20159     20162     20170     20172
     20159     20162     20170     20173     20160     20159     20162     20163
     20160     20159     20162     20164     20160     20159     20162     20170
     20161     20159     20162     20163     20161     20159     20162     20164
     20161     20159     20162     20170     20162     20164     20165     20166
     20162     20164     20165     20167     20162     20170     20173     20174
     20163     20162     20164     20165     20163     20162     20170     20171
     20163     20162     20170     20172     20163     20162     20170     20173
     20164     20162     20170     20171     20164     20162     20170     20172
     20164     20162     20170     20173     20164     20165     20167     20168
     20164     20165     20167     20169     20164     20165     20167     20179
     20165     20164     20162     20170     20165     20167     20179     20180
     20165     20167     20179     20181     20165     20167     20179     20182
     20166     20165     20167     20168     20166     20165     20167     20169
     20166     20165     20167     20179     20167     20179     20182     20183
     20167     20179     20182     20184     20167     20179     20182     20185
     20168     20167     20179     20180     20168     20167     20179     20181
     20168     20167     20179     20182     20169     20167     20179     20180
     20169     20167     20179     20181     20169     20167     20179     20182
     20170     20173     20174     20175     20170     20173     20174     20176
     20171     20170     20173     20174     20172     20170     20173     20174
     20173     20174     20176     20177     20173     20174     20176     20178
     20173     20174     20176     20220     20174     20176     20220     20221
     20174     20176     20220     20222     20174     20176     20220     20223
     20175     20174     20176     20177     20175     20174     20176     20178
     20175     20174     20176     20220     20176     20220     20223     20224
     20176     20220     20223     20225     20176     20220     20223     20226
     20177     20176     20220     20221     20177     20176     20220     20222
     20177     20176     20220     20223     20178     20176     20220     20221
     20178     20176     20220     20222     20178     20176     20220     20223
     20179     20182     20185     20186     20179     20182     20185     20187
     20179     20182     20185     20188     20180     20179     20182     20183
     20180     20179     20182     20184     20180     20179     20182     20185
     20181     20179     20182     20183     20181     20179     20182     20184
     20181     20179     20182     20185     20182     20185     20188     20189
     20182     20185     20188     20190     20182     20185     20188     20191
     20183     20182     20185     20186     20183     20182     20185     20187
     20183     20182     20185     20188     20184     20182     20185     20186
     20184     20182     20185     20187     20184     20182     20185     20188
     20185     20188     20191     20192     20185     20188     20191     20193
     20185     20188     20191     20194     20186     20185     20188     20189
     20186     20185     20188     20190     20186     20185     20188     20191
     20187     20185     20188     20189     20187     20185     20188     20190
     20187     20185     20188     20191     20188     20191     20194     20195
     20188     20191     20194     20196     20188     20191     20194     20197
     20189     20188     20191     20192     20189     20188     20191     20193
     20189     20188     20191     20194     20190     20188     20191     20192
     20190     20188     20191     20193     20190     20188     20191     20194
     20191     20194     20197     20198     20191     20194     20197     20199
     20192     20191     20194     20195     20192     20191     20194     20196
     20192     20191     20194     20197     20193     20191     20194     20195
     20193     20191     20194     20196     20193     20191     20194     20197
     20194     20197     20199     20200     20194     20197     20199     20201
     20195     20194     20197     20198     20195     20194     20197     20199
     20196     20194     20197     20198     20196     20194     20197     20199
     20197     20199     20201     20202     20197     20199     20201     20203
     20197     20199     20201     20204     20198     20197     20199     20200
     20198     20197     20199     20201     20199     20201     20204     20205
     20199     20201     20204     20206     20199     20201     20204     20207
     20200     20199     20201     20202     20200     20199     20201     20203
     20200     20199     20201     20204     20201     20204     20207     20208
     20201     20204     20207     20209     20201     20204     20207     20210
     20202     20201     20204     20205     20202     20201     20204     20206
     20202     20201     20204     20207     20203     20201     20204     20205
     20203     20201     20204     20206     20203     20201     20204     20207
     20204     20207     20210     20211     20204     20207     20210     20212
     20204     20207     20210     20213     20205     20204     20207     20208
     20205     20204     20207     20209     20205     20204     20207     20210
     20206     20204     20207     20208     20206     20204     20207     20209
     20206     20204     20207     20210     20207     20210     20213     20214
     20207     20210     20213     20215     20207     20210     20213     20216
     20208     20207     20210     20211     20208     20207     20210     20212
     20208     20207     20210     20213     20209     20207     20210     20211
     20209     20207     20210     20212     20209     20207     20210     20213
     20210     20213     20216     20217     20210     20213     20216     20218
     20210     20213     20216     20219     20211     20210     20213     20214
     20211     20210     20213     20215     20211     20210     20213     20216
     20212     20210     20213     20214     20212     20210     20213     20215
     20212     20210     20213     20216     20214     20213     20216     20217
     20214     20213     20216     20218     20214     20213     20216     20219
     20215     20213     20216     20217     20215     20213     20216     20218
     20215     20213     20216     20219     20220     20223     20226     20227
     20220     20223     20226     20228     20220     20223     20226     20229
     20221     20220     20223     20224     20221     20220     20223     20225
     20221     20220     20223     20226     20222     20220     20223     20224
     20222     20220     20223     20225     20222     20220     20223     20226
     20223     20226     20229     20230     20223     20226     20229     20231
     20223     20226     20229     20232     20224     20223     20226     20227
     20224     20223     20226     20228     20224     20223     20226     20229
     20225     20223     20226     20227     20225     20223     20226     20228
     20225     20223     20226     20229     20226     20229     20232     20233
     20226     20229     20232     20234     20226     20229     20232     20235
     20227     20226     20229     20230     20227     20226     20229     20231
     20227     20226     20229     20232     20228     20226     20229     20230
     20228     20226     20229     20231     20228     20226     20229     20232
     20229     20232     20235     20236     20229     20232     20235     20237
     20229     20232     20235     20238     20230     20229     20232     20233
     20230     20229     20232     20234     20230     20229     20232     20235
     20231     20229     20232     20233     20231     20229     20232     20234
     20231     20229     20232     20235     20232     20235     20238     20239
     20232     20235     20238     20240     20233     20232     20235     20236
     20233     20232     20235     20237     20233     20232     20235     20238
     20234     20232     20235     20236     20234     20232     20235     20237
     20234     20232     20235     20238     20235     20238     20240     20241
     20235     20238     20240     20242     20236     20235     20238     20239
     20236     20235     20238     20240     20237     20235     20238     20239
     20237     20235     20238     20240     20238     20240     20242     20243
     20238     20240     20242     20244     20238     20240     20242     20245
     20239     20238     20240     20241     20239     20238     20240     20242
     20240     20242     20245     20246     20240     20242     20245     20247
     20240     20242     20245     20248     20241     20240     20242     20243
     20241     20240     20242     20244     20241     20240     20242     20245
     20242     20245     20248     20249     20242     20245     20248     20250
     20242     20245     20248     20251     20243     20242     20245     20246
     20243     20242     20245     20247     20243     20242     20245     20248
     20244     20242     20245     20246     20244     20242     20245     20247
     20244     20242     20245     20248     20245     20248     20251     20252
     20245     20248     20251     20253     20245     20248     20251     20254
     20246     20245     20248     20249     20246     20245     20248     20250
     20246     20245     20248     20251     20247     20245     20248     20249
     20247     20245     20248     20250     20247     20245     20248     20251
     20248     20251     20254     20255     20248     20251     20254     20256
     20248     20251     20254     20257     20249     20248     20251     20252
     20249     20248     20251     20253     20249     20248     20251     20254
     20250     20248     20251     20252     20250     20248     20251     20253
     20250     20248     20251     20254     20251     20254     20257     20258
     20251     20254     20257     20259     20251     20254     20257     20260
     20252     20251     20254     20255     20252     20251     20254     20256
     20252     20251     20254     20257     20253     20251     20254     20255
     20253     20251     20254     20256     20253     20251     20254     20257
     20254     20257     20260     20261     20254     20257     20260     20262
     20254     20257     20260     20263     20255     20254     20257     20258
     20255     20254     20257     20259     20255     20254     20257     20260
     20256     20254     20257     20258     20256     20254     20257     20259
     20256     20254     20257     20260     20257     20260     20263     20264
     20257     20260     20263     20265     20257     20260     20263     20266
     20258     20257     20260     20261     20258     20257     20260     20262
     20258     20257     20260     20263     20259     20257     20260     20261
     20259     20257     20260     20262     20259     20257     20260     20263
     20261     20260     20263     20264     20261     20260     20263     20265
     20261     20260     20263     20266     20262     20260     20263     20264
     20262     20260     20263     20265     20262     20260     20263     20266
     20267     20271     20274     20275     20267     20271     20274     20276
     20267     20271     20274     20281     20268     20267     20271     20272
     20268     20267     20271     20273     20268     20267     20271     20274
     20269     20267     20271     20272     20269     20267     20271     20273
     20269     20267     20271     20274     20270     20267     20271     20272
     20270     20267     20271     20273     20270     20267     20271     20274
     20271     20274     20281     20277     20272     20271     20274     20275
     20272     20271     20274     20276     20272     20271     20274     20281
     20273     20271     20274     20275     20273     20271     20274     20276
     20273     20271     20274     20281     20274     20281     20277     20278
     20274     20281     20277     20279     20274     20281     20277     20280
     20275     20274     20281     20277     20276     20274     20281     20277
     20277     20280     20282     20283     20277     20280     20282     20284
     20277     20280     20282     20285     20278     20277     20280     20282
     20279     20277     20280     20282     20280     20282     20285     20286
     20280     20282     20285     20287     20280     20282     20285     20293
     20281     20277     20280     20282     20282     20285     20287     20288
     20282     20285     20293     20294     20282     20285     20293     20295
     20282     20285     20293     20296     20283     20282     20285     20286
     20283     20282     20285     20287     20283     20282     20285     20293
     20284     20282     20285     20286     20284     20282     20285     20287
     20284     20282     20285     20293     20285     20287     20288     20289
     20285     20287     20288     20290     20285     20293     20296     20297
     20286     20285     20287     20288     20286     20285     20293     20294
     20286     20285     20293     20295     20286     20285     20293     20296
     20287     20285     20293     20294     20287     20285     20293     20295
     20287     20285     20293     20296     20287     20288     20290     20291
     20287     20288     20290     20292     20287     20288     20290     20302
     20288     20287     20285     20293     20288     20290     20302     20303
     20288     20290     20302     20304     20288     20290     20302     20305
     20289     20288     20290     20291     20289     20288     20290     20292
     20289     20288     20290     20302     20290     20302     20305     20306
     20290     20302     20305     20307     20290     20302     20305     20308
     20291     20290     20302     20303     20291     20290     20302     20304
     20291     20290     20302     20305     20292     20290     20302     20303
     20292     20290     20302     20304     20292     20290     20302     20305
     20293     20296     20297     20298     20293     20296     20297     20299
     20294     20293     20296     20297     20295     20293     20296     20297
     20296     20297     20299     20300     20296     20297     20299     20301
     20296     20297     20299     20346     20297     20299     20346     20347
     20297     20299     20346     20348     20297     20299     20346     20349
     20298     20297     20299     20300     20298     20297     20299     20301
     20298     20297     20299     20346     20299     20346     20349     20350
     20299     20346     20349     20351     20299     20346     20349     20352
     20300     20299     20346     20347     20300     20299     20346     20348
     20300     20299     20346     20349     20301     20299     20346     20347
     20301     20299     20346     20348     20301     20299     20346     20349
     20302     20305     20308     20309     20302     20305     20308     20310
     20302     20305     20308     20311     20303     20302     20305     20306
     20303     20302     20305     20307     20303     20302     20305     20308
     20304     20302     20305     20306     20304     20302     20305     20307
     20304     20302     20305     20308     20305     20308     20311     20312
     20305     20308     20311     20313     20305     20308     20311     20314
     20306     20305     20308     20309     20306     20305     20308     20310
     20306     20305     20308     20311     20307     20305     20308     20309
     20307     20305     20308     20310     20307     20305     20308     20311
     20308     20311     20314     20315     20308     20311     20314     20316
     20308     20311     20314     20317     20309     20308     20311     20312
     20309     20308     20311     20313     20309     20308     20311     20314
     20310     20308     20311     20312     20310     20308     20311     20313
     20310     20308     20311     20314     20311     20314     20317     20318
     20311     20314     20317     20319     20311     20314     20317     20320
     20312     20311     20314     20315     20312     20311     20314     20316
     20312     20311     20314     20317     20313     20311     20314     20315
     20313     20311     20314     20316     20313     20311     20314     20317
     20314     20317     20320     20321     20314     20317     20320     20322
     20314     20317     20320     20325     20315     20314     20317     20318
     20315     20314     20317     20319     20315     20314     20317     20320
     20316     20314     20317     20318     20316     20314     20317     20319
     20316     20314     20317     20320     20317     20320     20322     20323
     20317     20320     20322     20324     20317     20320     20322     20325
     20317     20320     20325     20322     20317     20320     20325     20326
     20317     20320     20325     20327     20318     20317     20320     20321
     20318     20317     20320     20322     20318     20317     20320     20325
     20319     20317     20320     20321     20319     20317     20320     20322
     20319     20317     20320     20325     20320     20322     20325     20326
     20320     20322     20325     20327     20320     20325     20322     20323
     20320     20325     20322     20324     20320     20325     20327     20328
     20320     20325     20327     20329     20320     20325     20327     20330
     20321     20320     20322     20323     20321     20320     20322     20324
     20321     20320     20322     20325     20321     20320     20325     20322
     20321     20320     20325     20326     20321     20320     20325     20327
     20322     20320     20325     20326     20322     20320     20325     20327
     20322     20325     20327     20328     20322     20325     20327     20329
     20322     20325     20327     20330     20323     20322     20320     20325
     20323     20322     20325     20326     20323     20322     20325     20327
     20324     20322     20320     20325     20324     20322     20325     20326
     20324     20322     20325     20327     20325     20327     20330     20331
     20325     20327     20330     20332     20325     20327     20330     20333
     20326     20325     20327     20328     20326     20325     20327     20329
     20326     20325     20327     20330     20327     20330     20333     20334
     20327     20330     20333     20335     20327     20330     20333     20336
     20328     20327     20330     20331     20328     20327     20330     20332
     20328     20327     20330     20333     20329     20327     20330     20331
     20329     20327     20330     20332     20329     20327     20330     20333
     20330     20333     20336     20337     20330     20333     20336     20338
     20330     20333     20336     20339     20331     20330     20333     20334
     20331     20330     20333     20335     20331     20330     20333     20336
     20332     20330     20333     20334     20332     20330     20333     20335
     20332     20330     20333     20336     20333     20336     20339     20340
     20333     20336     20339     20341     20333     20336     20339     20342
     20334     20333     20336     20337     20334     20333     20336     20338
     20334     20333     20336     20339     20335     20333     20336     20337
     20335     20333     20336     20338     20335     20333     20336     20339
     20336     20339     20342     20343     20336     20339     20342     20344
     20336     20339     20342     20345     20337     20336     20339     20340
     20337     20336     20339     20341     20337     20336     20339     20342
     20338     20336     20339     20340     20338     20336     20339     20341
     20338     20336     20339     20342     20340     20339     20342     20343
     20340     20339     20342     20344     20340     20339     20342     20345
     20341     20339     20342     20343     20341     20339     20342     20344
     20341     20339     20342     20345     20346     20349     20352     20353
     20346     20349     20352     20354     20346     20349     20352     20355
     20347     20346     20349     20350     20347     20346     20349     20351
     20347     20346     20349     20352     20348     20346     20349     20350
     20348     20346     20349     20351     20348     20346     20349     20352
     20349     20352     20355     20356     20349     20352     20355     20357
     20349     20352     20355     20358     20350     20349     20352     20353
     20350     20349     20352     20354     20350     20349     20352     20355
     20351     20349     20352     20353     20351     20349     20352     20354
     20351     20349     20352     20355     20352     20355     20358     20359
     20352     20355     20358     20360     20352     20355     20358     20361
     20353     20352     20355     20356     20353     20352     20355     20357
     20353     20352     20355     20358     20354     20352     20355     20356
     20354     20352     20355     20357     20354     20352     20355     20358
     20355     20358     20361     20362     20355     20358     20361     20363
     20355     20358     20361     20364     20356     20355     20358     20359
     20356     20355     20358     20360     20356     20355     20358     20361
     20357     20355     20358     20359     20357     20355     20358     20360
     20357     20355     20358     20361     20358     20361     20364     20365
     20358     20361     20364     20366     20358     20361     20364     20367
     20359     20358     20361     20362     20359     20358     20361     20363
     20359     20358     20361     20364     20360     20358     20361     20362
     20360     20358     20361     20363     20360     20358     20361     20364
     20361     20364     20367     20368     20361     20364     20367     20369
     20361     20364     20367     20370     20362     20361     20364     20365
     20362     20361     20364     20366     20362     20361     20364     20367
     20363     20361     20364     20365     20363     20361     20364     20366
     20363     20361     20364     20367     20364     20367     20370     20371
     20364     20367     20370     20372     20364     20367     20370     20373
     20365     20364     20367     20368     20365     20364     20367     20369
     20365     20364     20367     20370     20366     20364     20367     20368
     20366     20364     20367     20369     20366     20364     20367     20370
     20367     20370     20373     20374     20367     20370     20373     20375
     20367     20370     20373     20376     20368     20367     20370     20371
     20368     20367     20370     20372     20368     20367     20370     20373
     20369     20367     20370     20371     20369     20367     20370     20372
     20369     20367     20370     20373     20370     20373     20376     20377
     20370     20373     20376     20378     20370     20373     20376     20379
     20371     20370     20373     20374     20371     20370     20373     20375
     20371     20370     20373     20376     20372     20370     20373     20374
     20372     20370     20373     20375     20372     20370     20373     20376
     20373     20376     20379     20380     20373     20376     20379     20381
     20373     20376     20379     20382     20374     20373     20376     20377
     20374     20373     20376     20378     20374     20373     20376     20379
     20375     20373     20376     20377     20375     20373     20376     20378
     20375     20373     20376     20379     20376     20379     20382     20383
     20376     20379     20382     20384     20376     20379     20382     20385
     20377     20376     20379     20380     20377     20376     20379     20381
     20377     20376     20379     20382     20378     20376     20379     20380
     20378     20376     20379     20381     20378     20376     20379     20382
     20379     20382     20385     20386     20379     20382     20385     20387
     20379     20382     20385     20388     20380     20379     20382     20383
     20380     20379     20382     20384     20380     20379     20382     20385
     20381     20379     20382     20383     20381     20379     20382     20384
     20381     20379     20382     20385     20383     20382     20385     20386
     20383     20382     20385     20387     20383     20382     20385     20388
     20384     20382     20385     20386     20384     20382     20385     20387
     20384     20382     20385     20388     20389     20393     20396     20397
     20389     20393     20396     20398     20389     20393     20396     20403
     20390     20389     20393     20394     20390     20389     20393     20395
     20390     20389     20393     20396     20391     20389     20393     20394
     20391     20389     20393     20395     20391     20389     20393     20396
     20392     20389     20393     20394     20392     20389     20393     20395
     20392     20389     20393     20396     20393     20396     20403     20399
     20394     20393     20396     20397     20394     20393     20396     20398
     20394     20393     20396     20403     20395     20393     20396     20397
     20395     20393     20396     20398     20395     20393     20396     20403
     20396     20403     20399     20400     20396     20403     20399     20401
     20396     20403     20399     20402     20397     20396     20403     20399
     20398     20396     20403     20399     20399     20402     20404     20405
     20399     20402     20404     20406     20399     20402     20404     20407
     20400     20399     20402     20404     20401     20399     20402     20404
     20402     20404     20407     20408     20402     20404     20407     20409
     20402     20404     20407     20415     20403     20399     20402     20404
     20404     20407     20409     20410     20404     20407     20415     20416
     20404     20407     20415     20417     20404     20407     20415     20418
     20405     20404     20407     20408     20405     20404     20407     20409
     20405     20404     20407     20415     20406     20404     20407     20408
     20406     20404     20407     20409     20406     20404     20407     20415
     20407     20409     20410     20411     20407     20409     20410     20412
     20407     20415     20418     20419     20408     20407     20409     20410
     20408     20407     20415     20416     20408     20407     20415     20417
     20408     20407     20415     20418     20409     20407     20415     20416
     20409     20407     20415     20417     20409     20407     20415     20418
     20409     20410     20412     20413     20409     20410     20412     20414
     20409     20410     20412     20424     20410     20409     20407     20415
     20410     20412     20424     20425     20410     20412     20424     20426
     20410     20412     20424     20427     20411     20410     20412     20413
     20411     20410     20412     20414     20411     20410     20412     20424
     20412     20424     20427     20428     20412     20424     20427     20429
     20412     20424     20427     20430     20413     20412     20424     20425
     20413     20412     20424     20426     20413     20412     20424     20427
     20414     20412     20424     20425     20414     20412     20424     20426
     20414     20412     20424     20427     20415     20418     20419     20420
     20415     20418     20419     20421     20416     20415     20418     20419
     20417     20415     20418     20419     20418     20419     20421     20422
     20418     20419     20421     20423     20418     20419     20421     20468
     20419     20421     20468     20469     20419     20421     20468     20470
     20419     20421     20468     20471     20420     20419     20421     20422
     20420     20419     20421     20423     20420     20419     20421     20468
     20421     20468     20471     20472     20421     20468     20471     20473
     20421     20468     20471     20474     20422     20421     20468     20469
     20422     20421     20468     20470     20422     20421     20468     20471
     20423     20421     20468     20469     20423     20421     20468     20470
     20423     20421     20468     20471     20424     20427     20430     20431
     20424     20427     20430     20432     20424     20427     20430     20433
     20425     20424     20427     20428     20425     20424     20427     20429
     20425     20424     20427     20430     20426     20424     20427     20428
     20426     20424     20427     20429     20426     20424     20427     20430
     20427     20430     20433     20434     20427     20430     20433     20435
     20427     20430     20433     20436     20428     20427     20430     20431
     20428     20427     20430     20432     20428     20427     20430     20433
     20429     20427     20430     20431     20429     20427     20430     20432
     20429     20427     20430     20433     20430     20433     20436     20437
     20430     20433     20436     20438     20430     20433     20436     20439
     20431     20430     20433     20434     20431     20430     20433     20435
     20431     20430     20433     20436     20432     20430     20433     20434
     20432     20430     20433     20435     20432     20430     20433     20436
     20433     20436     20439     20440     20433     20436     20439     20441
     20433     20436     20439     20442     20434     20433     20436     20437
     20434     20433     20436     20438     20434     20433     20436     20439
     20435     20433     20436     20437     20435     20433     20436     20438
     20435     20433     20436     20439     20436     20439     20442     20443
     20436     20439     20442     20444     20436     20439     20442     20447
     20437     20436     20439     20440     20437     20436     20439     20441
     20437     20436     20439     20442     20438     20436     20439     20440
     20438     20436     20439     20441     20438     20436     20439     20442
     20439     20442     20444     20445     20439     20442     20444     20446
     20439     20442     20444     20447     20439     20442     20447     20444
     20439     20442     20447     20448     20439     20442     20447     20449
     20440     20439     20442     20443     20440     20439     20442     20444
     20440     20439     20442     20447     20441     20439     20442     20443
     20441     20439     20442     20444     20441     20439     20442     20447
     20442     20444     20447     20448     20442     20444     20447     20449
     20442     20447     20444     20445     20442     20447     20444     20446
     20442     20447     20449     20450     20442     20447     20449     20451
     20442     20447     20449     20452     20443     20442     20444     20445
     20443     20442     20444     20446     20443     20442     20444     20447
     20443     20442     20447     20444     20443     20442     20447     20448
     20443     20442     20447     20449     20444     20442     20447     20448
     20444     20442     20447     20449     20444     20447     20449     20450
     20444     20447     20449     20451     20444     20447     20449     20452
     20445     20444     20442     20447     20445     20444     20447     20448
     20445     20444     20447     20449     20446     20444     20442     20447
     20446     20444     20447     20448     20446     20444     20447     20449
     20447     20449     20452     20453     20447     20449     20452     20454
     20447     20449     20452     20455     20448     20447     20449     20450
     20448     20447     20449     20451     20448     20447     20449     20452
     20449     20452     20455     20456     20449     20452     20455     20457
     20449     20452     20455     20458     20450     20449     20452     20453
     20450     20449     20452     20454     20450     20449     20452     20455
     20451     20449     20452     20453     20451     20449     20452     20454
     20451     20449     20452     20455     20452     20455     20458     20459
     20452     20455     20458     20460     20452     20455     20458     20461
     20453     20452     20455     20456     20453     20452     20455     20457
     20453     20452     20455     20458     20454     20452     20455     20456
     20454     20452     20455     20457     20454     20452     20455     20458
     20455     20458     20461     20462     20455     20458     20461     20463
     20455     20458     20461     20464     20456     20455     20458     20459
     20456     20455     20458     20460     20456     20455     20458     20461
     20457     20455     20458     20459     20457     20455     20458     20460
     20457     20455     20458     20461     20458     20461     20464     20465
     20458     20461     20464     20466     20458     20461     20464     20467
     20459     20458     20461     20462     20459     20458     20461     20463
     20459     20458     20461     20464     20460     20458     20461     20462
     20460     20458     20461     20463     20460     20458     20461     20464
     20462     20461     20464     20465     20462     20461     20464     20466
     20462     20461     20464     20467     20463     20461     20464     20465
     20463     20461     20464     20466     20463     20461     20464     20467
     20468     20471     20474     20475     20468     20471     20474     20476
     20468     20471     20474     20477     20469     20468     20471     20472
     20469     20468     20471     20473     20469     20468     20471     20474
     20470     20468     20471     20472     20470     20468     20471     20473
     20470     20468     20471     20474     20471     20474     20477     20478
     20471     20474     20477     20479     20471     20474     20477     20480
     20472     20471     20474     20475     20472     20471     20474     20476
     20472     20471     20474     20477     20473     20471     20474     20475
     20473     20471     20474     20476     20473     20471     20474     20477
     20474     20477     20480     20481     20474     20477     20480     20482
     20474     20477     20480     20483     20475     20474     20477     20478
     20475     20474     20477     20479     20475     20474     20477     20480
     20476     20474     20477     20478     20476     20474     20477     20479
     20476     20474     20477     20480     20477     20480     20483     20484
     20477     20480     20483     20485     20477     20480     20483     20486
     20478     20477     20480     20481     20478     20477     20480     20482
     20478     20477     20480     20483     20479     20477     20480     20481
     20479     20477     20480     20482     20479     20477     20480     20483
     20480     20483     20486     20487     20480     20483     20486     20488
     20480     20483     20486     20489     20481     20480     20483     20484
     20481     20480     20483     20485     20481     20480     20483     20486
     20482     20480     20483     20484     20482     20480     20483     20485
     20482     20480     20483     20486     20483     20486     20489     20490
     20483     20486     20489     20491     20483     20486     20489     20492
     20484     20483     20486     20487     20484     20483     20486     20488
     20484     20483     20486     20489     20485     20483     20486     20487
     20485     20483     20486     20488     20485     20483     20486     20489
     20486     20489     20492     20493     20486     20489     20492     20494
     20486     20489     20492     20495     20487     20486     20489     20490
     20487     20486     20489     20491     20487     20486     20489     20492
     20488     20486     20489     20490     20488     20486     20489     20491
     20488     20486     20489     20492     20489     20492     20495     20496
     20489     20492     20495     20497     20489     20492     20495     20498
     20490     20489     20492     20493     20490     20489     20492     20494
     20490     20489     20492     20495     20491     20489     20492     20493
     20491     20489     20492     20494     20491     20489     20492     20495
     20492     20495     20498     20499     20492     20495     20498     20500
     20492     20495     20498     20501     20493     20492     20495     20496
     20493     20492     20495     20497     20493     20492     20495     20498
     20494     20492     20495     20496     20494     20492     20495     20497
     20494     20492     20495     20498     20495     20498     20501     20502
     20495     20498     20501     20503     20495     20498     20501     20504
     20496     20495     20498     20499     20496     20495     20498     20500
     20496     20495     20498     20501     20497     20495     20498     20499
     20497     20495     20498     20500     20497     20495     20498     20501
     20498     20501     20504     20505     20498     20501     20504     20506
     20498     20501     20504     20507     20499     20498     20501     20502
     20499     20498     20501     20503     20499     20498     20501     20504
     20500     20498     20501     20502     20500     20498     20501     20503
     20500     20498     20501     20504     20501     20504     20507     20508
     20501     20504     20507     20509     20501     20504     20507     20510
     20502     20501     20504     20505     20502     20501     20504     20506
     20502     20501     20504     20507     20503     20501     20504     20505
     20503     20501     20504     20506     20503     20501     20504     20507
     20505     20504     20507     20508     20505     20504     20507     20509
     20505     20504     20507     20510     20506     20504     20507     20508
     20506     20504     20507     20509     20506     20504     20507     20510
     20511     20516     20518     20519     20511     20516     20520     20521
     20511     20516     20520     20522     20511     20516     20520     20527
     20512     20511     20514     20515     20512     20511     20516     20517
     20512     20511     20516     20518     20512     20511     20516     20520
     20513     20511     20514     20515     20513     20511     20516     20517
     20513     20511     20516     20518     20513     20511     20516     20520
     20514     20511     20516     20517     20514     20511     20516     20518
     20514     20511     20516     20520     20515     20514     20511     20516
     20516     20520     20527     20523     20517     20516     20518     20519
     20517     20516     20520     20521     20517     20516     20520     20522
     20517     20516     20520     20527     20518     20516     20520     20521
     20518     20516     20520     20522     20518     20516     20520     20527
     20519     20518     20516     20520     20520     20527     20523     20524
     20520     20527     20523     20525     20520     20527     20523     20526
     20521     20520     20527     20523     20522     20520     20527     20523
     20523     20526     20528     20529     20523     20526     20528     20530
     20523     20526     20528     20531     20524     20523     20526     20528
     20525     20523     20526     20528     20526     20528     20531     20532
     20526     20528     20531     20533     20526     20528     20531     20539
     20527     20523     20526     20528     20528     20531     20533     20534
     20528     20531     20539     20540     20528     20531     20539     20541
     20528     20531     20539     20542     20529     20528     20531     20532
     20529     20528     20531     20533     20529     20528     20531     20539
     20530     20528     20531     20532     20530     20528     20531     20533
     20530     20528     20531     20539     20531     20533     20534     20535
     20531     20533     20534     20536     20531     20539     20542     20543
     20532     20531     20533     20534     20532     20531     20539     20540
     20532     20531     20539     20541     20532     20531     20539     20542
     20533     20531     20539     20540     20533     20531     20539     20541
     20533     20531     20539     20542     20533     20534     20536     20537
     20533     20534     20536     20538     20533     20534     20536     20548
     20534     20533     20531     20539     20534     20536     20548     20549
     20534     20536     20548     20550     20534     20536     20548     20551
     20535     20534     20536     20537     20535     20534     20536     20538
     20535     20534     20536     20548     20536     20548     20551     20552
     20536     20548     20551     20553     20536     20548     20551     20554
     20537     20536     20548     20549     20537     20536     20548     20550
     20537     20536     20548     20551     20538     20536     20548     20549
     20538     20536     20548     20550     20538     20536     20548     20551
     20539     20542     20543     20544     20539     20542     20543     20545
     20540     20539     20542     20543     20541     20539     20542     20543
     20542     20543     20545     20546     20542     20543     20545     20547
     20542     20543     20545     20592     20543     20545     20592     20593
     20543     20545     20592     20594     20543     20545     20592     20595
     20544     20543     20545     20546     20544     20543     20545     20547
     20544     20543     20545     20592     20545     20592     20595     20596
     20545     20592     20595     20597     20545     20592     20595     20598
     20546     20545     20592     20593     20546     20545     20592     20594
     20546     20545     20592     20595     20547     20545     20592     20593
     20547     20545     20592     20594     20547     20545     20592     20595
     20548     20551     20554     20555     20548     20551     20554     20556
     20548     20551     20554     20557     20549     20548     20551     20552
     20549     20548     20551     20553     20549     20548     20551     20554
     20550     20548     20551     20552     20550     20548     20551     20553
     20550     20548     20551     20554     20551     20554     20557     20558
     20551     20554     20557     20559     20551     20554     20557     20560
     20552     20551     20554     20555     20552     20551     20554     20556
     20552     20551     20554     20557     20553     20551     20554     20555
     20553     20551     20554     20556     20553     20551     20554     20557
     20554     20557     20560     20561     20554     20557     20560     20562
     20554     20557     20560     20563     20555     20554     20557     20558
     20555     20554     20557     20559     20555     20554     20557     20560
     20556     20554     20557     20558     20556     20554     20557     20559
     20556     20554     20557     20560     20557     20560     20563     20564
     20557     20560     20563     20565     20557     20560     20563     20566
     20558     20557     20560     20561     20558     20557     20560     20562
     20558     20557     20560     20563     20559     20557     20560     20561
     20559     20557     20560     20562     20559     20557     20560     20563
     20560     20563     20566     20567     20560     20563     20566     20568
     20560     20563     20566     20571     20561     20560     20563     20564
     20561     20560     20563     20565     20561     20560     20563     20566
     20562     20560     20563     20564     20562     20560     20563     20565
     20562     20560     20563     20566     20563     20566     20568     20569
     20563     20566     20568     20570     20563     20566     20568     20571
     20563     20566     20571     20568     20563     20566     20571     20572
     20563     20566     20571     20573     20564     20563     20566     20567
     20564     20563     20566     20568     20564     20563     20566     20571
     20565     20563     20566     20567     20565     20563     20566     20568
     20565     20563     20566     20571     20566     20568     20571     20572
     20566     20568     20571     20573     20566     20571     20568     20569
     20566     20571     20568     20570     20566     20571     20573     20574
     20566     20571     20573     20575     20566     20571     20573     20576
     20567     20566     20568     20569     20567     20566     20568     20570
     20567     20566     20568     20571     20567     20566     20571     20568
     20567     20566     20571     20572     20567     20566     20571     20573
     20568     20566     20571     20572     20568     20566     20571     20573
     20568     20571     20573     20574     20568     20571     20573     20575
     20568     20571     20573     20576     20569     20568     20566     20571
     20569     20568     20571     20572     20569     20568     20571     20573
     20570     20568     20566     20571     20570     20568     20571     20572
     20570     20568     20571     20573     20571     20573     20576     20577
     20571     20573     20576     20578     20571     20573     20576     20579
     20572     20571     20573     20574     20572     20571     20573     20575
     20572     20571     20573     20576     20573     20576     20579     20580
     20573     20576     20579     20581     20573     20576     20579     20582
     20574     20573     20576     20577     20574     20573     20576     20578
     20574     20573     20576     20579     20575     20573     20576     20577
     20575     20573     20576     20578     20575     20573     20576     20579
     20576     20579     20582     20583     20576     20579     20582     20584
     20576     20579     20582     20585     20577     20576     20579     20580
     20577     20576     20579     20581     20577     20576     20579     20582
     20578     20576     20579     20580     20578     20576     20579     20581
     20578     20576     20579     20582     20579     20582     20585     20586
     20579     20582     20585     20587     20579     20582     20585     20588
     20580     20579     20582     20583     20580     20579     20582     20584
     20580     20579     20582     20585     20581     20579     20582     20583
     20581     20579     20582     20584     20581     20579     20582     20585
     20582     20585     20588     20589     20582     20585     20588     20590
     20582     20585     20588     20591     20583     20582     20585     20586
     20583     20582     20585     20587     20583     20582     20585     20588
     20584     20582     20585     20586     20584     20582     20585     20587
     20584     20582     20585     20588     20586     20585     20588     20589
     20586     20585     20588     20590     20586     20585     20588     20591
     20587     20585     20588     20589     20587     20585     20588     20590
     20587     20585     20588     20591     20592     20595     20598     20599
     20592     20595     20598     20600     20592     20595     20598     20601
     20593     20592     20595     20596     20593     20592     20595     20597
     20593     20592     20595     20598     20594     20592     20595     20596
     20594     20592     20595     20597     20594     20592     20595     20598
     20595     20598     20601     20602     20595     20598     20601     20603
     20595     20598     20601     20604     20596     20595     20598     20599
     20596     20595     20598     20600     20596     20595     20598     20601
     20597     20595     20598     20599     20597     20595     20598     20600
     20597     20595     20598     20601     20598     20601     20604     20605
     20598     20601     20604     20606     20598     20601     20604     20607
     20599     20598     20601     20602     20599     20598     20601     20603
     20599     20598     20601     20604     20600     20598     20601     20602
     20600     20598     20601     20603     20600     20598     20601     20604
     20601     20604     20607     20608     20601     20604     20607     20609
     20601     20604     20607     20610     20602     20601     20604     20605
     20602     20601     20604     20606     20602     20601     20604     20607
     20603     20601     20604     20605     20603     20601     20604     20606
     20603     20601     20604     20607     20604     20607     20610     20611
     20604     20607     20610     20612     20604     20607     20610     20613
     20605     20604     20607     20608     20605     20604     20607     20609
     20605     20604     20607     20610     20606     20604     20607     20608
     20606     20604     20607     20609     20606     20604     20607     20610
     20607     20610     20613     20614     20607     20610     20613     20615
     20607     20610     20613     20616     20608     20607     20610     20611
     20608     20607     20610     20612     20608     20607     20610     20613
     20609     20607     20610     20611     20609     20607     20610     20612
     20609     20607     20610     20613     20610     20613     20616     20617
     20610     20613     20616     20618     20610     20613     20616     20619
     20611     20610     20613     20614     20611     20610     20613     20615
     20611     20610     20613     20616     20612     20610     20613     20614
     20612     20610     20613     20615     20612     20610     20613     20616
     20613     20616     20619     20620     20613     20616     20619     20621
     20613     20616     20619     20622     20614     20613     20616     20617
     20614     20613     20616     20618     20614     20613     20616     20619
     20615     20613     20616     20617     20615     20613     20616     20618
     20615     20613     20616     20619     20616     20619     20622     20623
     20616     20619     20622     20624     20616     20619     20622     20625
     20617     20616     20619     20620     20617     20616     20619     20621
     20617     20616     20619     20622     20618     20616     20619     20620
     20618     20616     20619     20621     20618     20616     20619     20622
     20619     20622     20625     20626     20619     20622     20625     20627
     20619     20622     20625     20628     20620     20619     20622     20623
     20620     20619     20622     20624     20620     20619     20622     20625
     20621     20619     20622     20623     20621     20619     20622     20624
     20621     20619     20622     20625     20622     20625     20628     20629
     20622     20625     20628     20630     20622     20625     20628     20631
     20623     20622     20625     20626     20623     20622     20625     20627
     20623     20622     20625     20628     20624     20622     20625     20626
     20624     20622     20625     20627     20624     20622     20625     20628
     20625     20628     20631     20632     20625     20628     20631     20633
     20625     20628     20631     20634     20626     20625     20628     20629
     20626     20625     20628     20630     20626     20625     20628     20631
     20627     20625     20628     20629     20627     20625     20628     20630
     20627     20625     20628     20631     20629     20628     20631     20632
     20629     20628     20631     20633     20629     20628     20631     20634
     20630     20628     20631     20632     20630     20628     20631     20633
     20630     20628     20631     20634     20635     20639     20642     20643
     20635     20639     20642     20644     20635     20639     20642     20649
     20636     20635     20639     20640     20636     20635     20639     20641
     20636     20635     20639     20642     20637     20635     20639     20640
     20637     20635     20639     20641     20637     20635     20639     20642
     20638     20635     20639     20640     20638     20635     20639     20641
     20638     20635     20639     20642     20639     20642     20649     20645
     20640     20639     20642     20643     20640     20639     20642     20644
     20640     20639     20642     20649     20641     20639     20642     20643
     20641     20639     20642     20644     20641     20639     20642     20649
     20642     20649     20645     20646     20642     20649     20645     20647
     20642     20649     20645     20648     20643     20642     20649     20645
     20644     20642     20649     20645     20645     20648     20650     20651
     20645     20648     20650     20652     20645     20648     20650     20653
     20646     20645     20648     20650     20647     20645     20648     20650
     20648     20650     20653     20654     20648     20650     20653     20655
     20648     20650     20653     20661     20649     20645     20648     20650
     20650     20653     20655     20656     20650     20653     20661     20662
     20650     20653     20661     20663     20650     20653     20661     20664
     20651     20650     20653     20654     20651     20650     20653     20655
     20651     20650     20653     20661     20652     20650     20653     20654
     20652     20650     20653     20655     20652     20650     20653     20661
     20653     20655     20656     20657     20653     20655     20656     20658
     20653     20661     20664     20665     20654     20653     20655     20656
     20654     20653     20661     20662     20654     20653     20661     20663
     20654     20653     20661     20664     20655     20653     20661     20662
     20655     20653     20661     20663     20655     20653     20661     20664
     20655     20656     20658     20659     20655     20656     20658     20660
     20655     20656     20658     20670     20656     20655     20653     20661
     20656     20658     20670     20671     20656     20658     20670     20672
     20656     20658     20670     20673     20657     20656     20658     20659
     20657     20656     20658     20660     20657     20656     20658     20670
     20658     20670     20673     20674     20658     20670     20673     20675
     20658     20670     20673     20676     20659     20658     20670     20671
     20659     20658     20670     20672     20659     20658     20670     20673
     20660     20658     20670     20671     20660     20658     20670     20672
     20660     20658     20670     20673     20661     20664     20665     20666
     20661     20664     20665     20667     20662     20661     20664     20665
     20663     20661     20664     20665     20664     20665     20667     20668
     20664     20665     20667     20669     20664     20665     20667     20714
     20665     20667     20714     20715     20665     20667     20714     20716
     20665     20667     20714     20717     20666     20665     20667     20668
     20666     20665     20667     20669     20666     20665     20667     20714
     20667     20714     20717     20718     20667     20714     20717     20719
     20667     20714     20717     20720     20668     20667     20714     20715
     20668     20667     20714     20716     20668     20667     20714     20717
     20669     20667     20714     20715     20669     20667     20714     20716
     20669     20667     20714     20717     20670     20673     20676     20677
     20670     20673     20676     20678     20670     20673     20676     20679
     20671     20670     20673     20674     20671     20670     20673     20675
     20671     20670     20673     20676     20672     20670     20673     20674
     20672     20670     20673     20675     20672     20670     20673     20676
     20673     20676     20679     20680     20673     20676     20679     20681
     20673     20676     20679     20682     20674     20673     20676     20677
     20674     20673     20676     20678     20674     20673     20676     20679
     20675     20673     20676     20677     20675     20673     20676     20678
     20675     20673     20676     20679     20676     20679     20682     20683
     20676     20679     20682     20684     20676     20679     20682     20685
     20677     20676     20679     20680     20677     20676     20679     20681
     20677     20676     20679     20682     20678     20676     20679     20680
     20678     20676     20679     20681     20678     20676     20679     20682
     20679     20682     20685     20686     20679     20682     20685     20687
     20679     20682     20685     20688     20680     20679     20682     20683
     20680     20679     20682     20684     20680     20679     20682     20685
     20681     20679     20682     20683     20681     20679     20682     20684
     20681     20679     20682     20685     20682     20685     20688     20689
     20682     20685     20688     20690     20682     20685     20688     20693
     20683     20682     20685     20686     20683     20682     20685     20687
     20683     20682     20685     20688     20684     20682     20685     20686
     20684     20682     20685     20687     20684     20682     20685     20688
     20685     20688     20690     20691     20685     20688     20690     20692
     20685     20688     20690     20693     20685     20688     20693     20690
     20685     20688     20693     20694     20685     20688     20693     20695
     20686     20685     20688     20689     20686     20685     20688     20690
     20686     20685     20688     20693     20687     20685     20688     20689
     20687     20685     20688     20690     20687     20685     20688     20693
     20688     20690     20693     20694     20688     20690     20693     20695
     20688     20693     20690     20691     20688     20693     20690     20692
     20688     20693     20695     20696     20688     20693     20695     20697
     20688     20693     20695     20698     20689     20688     20690     20691
     20689     20688     20690     20692     20689     20688     20690     20693
     20689     20688     20693     20690     20689     20688     20693     20694
     20689     20688     20693     20695     20690     20688     20693     20694
     20690     20688     20693     20695     20690     20693     20695     20696
     20690     20693     20695     20697     20690     20693     20695     20698
     20691     20690     20688     20693     20691     20690     20693     20694
     20691     20690     20693     20695     20692     20690     20688     20693
     20692     20690     20693     20694     20692     20690     20693     20695
     20693     20695     20698     20699     20693     20695     20698     20700
     20693     20695     20698     20701     20694     20693     20695     20696
     20694     20693     20695     20697     20694     20693     20695     20698
     20695     20698     20701     20702     20695     20698     20701     20703
     20695     20698     20701     20704     20696     20695     20698     20699
     20696     20695     20698     20700     20696     20695     20698     20701
     20697     20695     20698     20699     20697     20695     20698     20700
     20697     20695     20698     20701     20698     20701     20704     20705
     20698     20701     20704     20706     20698     20701     20704     20707
     20699     20698     20701     20702     20699     20698     20701     20703
     20699     20698     20701     20704     20700     20698     20701     20702
     20700     20698     20701     20703     20700     20698     20701     20704
     20701     20704     20707     20708     20701     20704     20707     20709
     20701     20704     20707     20710     20702     20701     20704     20705
     20702     20701     20704     20706     20702     20701     20704     20707
     20703     20701     20704     20705     20703     20701     20704     20706
     20703     20701     20704     20707     20704     20707     20710     20711
     20704     20707     20710     20712     20704     20707     20710     20713
     20705     20704     20707     20708     20705     20704     20707     20709
     20705     20704     20707     20710     20706     20704     20707     20708
     20706     20704     20707     20709     20706     20704     20707     20710
     20708     20707     20710     20711     20708     20707     20710     20712
     20708     20707     20710     20713     20709     20707     20710     20711
     20709     20707     20710     20712     20709     20707     20710     20713
     20714     20717     20720     20721     20714     20717     20720     20722
     20714     20717     20720     20723     20715     20714     20717     20718
     20715     20714     20717     20719     20715     20714     20717     20720
     20716     20714     20717     20718     20716     20714     20717     20719
     20716     20714     20717     20720     20717     20720     20723     20724
     20717     20720     20723     20725     20717     20720     20723     20726
     20718     20717     20720     20721     20718     20717     20720     20722
     20718     20717     20720     20723     20719     20717     20720     20721
     20719     20717     20720     20722     20719     20717     20720     20723
     20720     20723     20726     20727     20720     20723     20726     20728
     20720     20723     20726     20729     20721     20720     20723     20724
     20721     20720     20723     20725     20721     20720     20723     20726
     20722     20720     20723     20724     20722     20720     20723     20725
     20722     20720     20723     20726     20723     20726     20729     20730
     20723     20726     20729     20731     20723     20726     20729     20732
     20724     20723     20726     20727     20724     20723     20726     20728
     20724     20723     20726     20729     20725     20723     20726     20727
     20725     20723     20726     20728     20725     20723     20726     20729
     20726     20729     20732     20733     20726     20729     20732     20734
     20726     20729     20732     20735     20727     20726     20729     20730
     20727     20726     20729     20731     20727     20726     20729     20732
     20728     20726     20729     20730     20728     20726     20729     20731
     20728     20726     20729     20732     20729     20732     20735     20736
     20729     20732     20735     20737     20729     20732     20735     20738
     20730     20729     20732     20733     20730     20729     20732     20734
     20730     20729     20732     20735     20731     20729     20732     20733
     20731     20729     20732     20734     20731     20729     20732     20735
     20732     20735     20738     20739     20732     20735     20738     20740
     20732     20735     20738     20741     20733     20732     20735     20736
     20733     20732     20735     20737     20733     20732     20735     20738
     20734     20732     20735     20736     20734     20732     20735     20737
     20734     20732     20735     20738     20735     20738     20741     20742
     20735     20738     20741     20743     20735     20738     20741     20744
     20736     20735     20738     20739     20736     20735     20738     20740
     20736     20735     20738     20741     20737     20735     20738     20739
     20737     20735     20738     20740     20737     20735     20738     20741
     20738     20741     20744     20745     20738     20741     20744     20746
     20738     20741     20744     20747     20739     20738     20741     20742
     20739     20738     20741     20743     20739     20738     20741     20744
     20740     20738     20741     20742     20740     20738     20741     20743
     20740     20738     20741     20744     20741     20744     20747     20748
     20741     20744     20747     20749     20741     20744     20747     20750
     20742     20741     20744     20745     20742     20741     20744     20746
     20742     20741     20744     20747     20743     20741     20744     20745
     20743     20741     20744     20746     20743     20741     20744     20747
     20744     20747     20750     20751     20744     20747     20750     20752
     20744     20747     20750     20753     20745     20744     20747     20748
     20745     20744     20747     20749     20745     20744     20747     20750
     20746     20744     20747     20748     20746     20744     20747     20749
     20746     20744     20747     20750     20748     20747     20750     20751
     20748     20747     20750     20752     20748     20747     20750     20753
     20749     20747     20750     20751     20749     20747     20750     20752
     20749     20747     20750     20753     20754     20758     20761     20762
     20754     20758     20761     20763     20754     20758     20761     20768
     20755     20754     20758     20759     20755     20754     20758     20760
     20755     20754     20758     20761     20756     20754     20758     20759
     20756     20754     20758     20760     20756     20754     20758     20761
     20757     20754     20758     20759     20757     20754     20758     20760
     20757     20754     20758     20761     20758     20761     20768     20764
     20759     20758     20761     20762     20759     20758     20761     20763
     20759     20758     20761     20768     20760     20758     20761     20762
     20760     20758     20761     20763     20760     20758     20761     20768
     20761     20768     20764     20765     20761     20768     20764     20766
     20761     20768     20764     20767     20762     20761     20768     20764
     20763     20761     20768     20764     20764     20767     20769     20770
     20764     20767     20769     20771     20764     20767     20769     20772
     20765     20764     20767     20769     20766     20764     20767     20769
     20767     20769     20772     20773     20767     20769     20772     20774
     20767     20769     20772     20780     20768     20764     20767     20769
     20769     20772     20774     20775     20769     20772     20780     20781
     20769     20772     20780     20782     20769     20772     20780     20783
     20770     20769     20772     20773     20770     20769     20772     20774
     20770     20769     20772     20780     20771     20769     20772     20773
     20771     20769     20772     20774     20771     20769     20772     20780
     20772     20774     20775     20776     20772     20774     20775     20777
     20772     20780     20783     20784     20773     20772     20774     20775
     20773     20772     20780     20781     20773     20772     20780     20782
     20773     20772     20780     20783     20774     20772     20780     20781
     20774     20772     20780     20782     20774     20772     20780     20783
     20774     20775     20777     20778     20774     20775     20777     20779
     20774     20775     20777     20789     20775     20774     20772     20780
     20775     20777     20789     20790     20775     20777     20789     20791
     20775     20777     20789     20792     20776     20775     20777     20778
     20776     20775     20777     20779     20776     20775     20777     20789
     20777     20789     20792     20793     20777     20789     20792     20794
     20777     20789     20792     20795     20778     20777     20789     20790
     20778     20777     20789     20791     20778     20777     20789     20792
     20779     20777     20789     20790     20779     20777     20789     20791
     20779     20777     20789     20792     20780     20783     20784     20785
     20780     20783     20784     20786     20781     20780     20783     20784
     20782     20780     20783     20784     20783     20784     20786     20787
     20783     20784     20786     20788     20783     20784     20786     20833
     20784     20786     20833     20834     20784     20786     20833     20835
     20784     20786     20833     20836     20785     20784     20786     20787
     20785     20784     20786     20788     20785     20784     20786     20833
     20786     20833     20836     20837     20786     20833     20836     20838
     20786     20833     20836     20839     20787     20786     20833     20834
     20787     20786     20833     20835     20787     20786     20833     20836
     20788     20786     20833     20834     20788     20786     20833     20835
     20788     20786     20833     20836     20789     20792     20795     20796
     20789     20792     20795     20797     20789     20792     20795     20798
     20790     20789     20792     20793     20790     20789     20792     20794
     20790     20789     20792     20795     20791     20789     20792     20793
     20791     20789     20792     20794     20791     20789     20792     20795
     20792     20795     20798     20799     20792     20795     20798     20800
     20792     20795     20798     20801     20793     20792     20795     20796
     20793     20792     20795     20797     20793     20792     20795     20798
     20794     20792     20795     20796     20794     20792     20795     20797
     20794     20792     20795     20798     20795     20798     20801     20802
     20795     20798     20801     20803     20795     20798     20801     20804
     20796     20795     20798     20799     20796     20795     20798     20800
     20796     20795     20798     20801     20797     20795     20798     20799
     20797     20795     20798     20800     20797     20795     20798     20801
     20798     20801     20804     20805     20798     20801     20804     20806
     20798     20801     20804     20807     20799     20798     20801     20802
     20799     20798     20801     20803     20799     20798     20801     20804
     20800     20798     20801     20802     20800     20798     20801     20803
     20800     20798     20801     20804     20801     20804     20807     20808
     20801     20804     20807     20809     20801     20804     20807     20812
     20802     20801     20804     20805     20802     20801     20804     20806
     20802     20801     20804     20807     20803     20801     20804     20805
     20803     20801     20804     20806     20803     20801     20804     20807
     20804     20807     20809     20810     20804     20807     20809     20811
     20804     20807     20809     20812     20804     20807     20812     20809
     20804     20807     20812     20813     20804     20807     20812     20814
     20805     20804     20807     20808     20805     20804     20807     20809
     20805     20804     20807     20812     20806     20804     20807     20808
     20806     20804     20807     20809     20806     20804     20807     20812
     20807     20809     20812     20813     20807     20809     20812     20814
     20807     20812     20809     20810     20807     20812     20809     20811
     20807     20812     20814     20815     20807     20812     20814     20816
     20807     20812     20814     20817     20808     20807     20809     20810
     20808     20807     20809     20811     20808     20807     20809     20812
     20808     20807     20812     20809     20808     20807     20812     20813
     20808     20807     20812     20814     20809     20807     20812     20813
     20809     20807     20812     20814     20809     20812     20814     20815
     20809     20812     20814     20816     20809     20812     20814     20817
     20810     20809     20807     20812     20810     20809     20812     20813
     20810     20809     20812     20814     20811     20809     20807     20812
     20811     20809     20812     20813     20811     20809     20812     20814
     20812     20814     20817     20818     20812     20814     20817     20819
     20812     20814     20817     20820     20813     20812     20814     20815
     20813     20812     20814     20816     20813     20812     20814     20817
     20814     20817     20820     20821     20814     20817     20820     20822
     20814     20817     20820     20823     20815     20814     20817     20818
     20815     20814     20817     20819     20815     20814     20817     20820
     20816     20814     20817     20818     20816     20814     20817     20819
     20816     20814     20817     20820     20817     20820     20823     20824
     20817     20820     20823     20825     20817     20820     20823     20826
     20818     20817     20820     20821     20818     20817     20820     20822
     20818     20817     20820     20823     20819     20817     20820     20821
     20819     20817     20820     20822     20819     20817     20820     20823
     20820     20823     20826     20827     20820     20823     20826     20828
     20820     20823     20826     20829     20821     20820     20823     20824
     20821     20820     20823     20825     20821     20820     20823     20826
     20822     20820     20823     20824     20822     20820     20823     20825
     20822     20820     20823     20826     20823     20826     20829     20830
     20823     20826     20829     20831     20823     20826     20829     20832
     20824     20823     20826     20827     20824     20823     20826     20828
     20824     20823     20826     20829     20825     20823     20826     20827
     20825     20823     20826     20828     20825     20823     20826     20829
     20827     20826     20829     20830     20827     20826     20829     20831
     20827     20826     20829     20832     20828     20826     20829     20830
     20828     20826     20829     20831     20828     20826     20829     20832
     20833     20836     20839     20840     20833     20836     20839     20841
     20833     20836     20839     20842     20834     20833     20836     20837
     20834     20833     20836     20838     20834     20833     20836     20839
     20835     20833     20836     20837     20835     20833     20836     20838
     20835     20833     20836     20839     20836     20839     20842     20843
     20836     20839     20842     20844     20836     20839     20842     20845
     20837     20836     20839     20840     20837     20836     20839     20841
     20837     20836     20839     20842     20838     20836     20839     20840
     20838     20836     20839     20841     20838     20836     20839     20842
     20839     20842     20845     20846     20839     20842     20845     20847
     20839     20842     20845     20848     20840     20839     20842     20843
     20840     20839     20842     20844     20840     20839     20842     20845
     20841     20839     20842     20843     20841     20839     20842     20844
     20841     20839     20842     20845     20842     20845     20848     20849
     20842     20845     20848     20850     20842     20845     20848     20851
     20843     20842     20845     20846     20843     20842     20845     20847
     20843     20842     20845     20848     20844     20842     20845     20846
     20844     20842     20845     20847     20844     20842     20845     20848
     20845     20848     20851     20852     20845     20848     20851     20853
     20845     20848     20851     20854     20846     20845     20848     20849
     20846     20845     20848     20850     20846     20845     20848     20851
     20847     20845     20848     20849     20847     20845     20848     20850
     20847     20845     20848     20851     20848     20851     20854     20855
     20848     20851     20854     20856     20848     20851     20854     20857
     20849     20848     20851     20852     20849     20848     20851     20853
     20849     20848     20851     20854     20850     20848     20851     20852
     20850     20848     20851     20853     20850     20848     20851     20854
     20851     20854     20857     20858     20851     20854     20857     20859
     20851     20854     20857     20860     20852     20851     20854     20855
     20852     20851     20854     20856     20852     20851     20854     20857
     20853     20851     20854     20855     20853     20851     20854     20856
     20853     20851     20854     20857     20854     20857     20860     20861
     20854     20857     20860     20862     20854     20857     20860     20863
     20855     20854     20857     20858     20855     20854     20857     20859
     20855     20854     20857     20860     20856     20854     20857     20858
     20856     20854     20857     20859     20856     20854     20857     20860
     20857     20860     20863     20864     20857     20860     20863     20865
     20857     20860     20863     20866     20858     20857     20860     20861
     20858     20857     20860     20862     20858     20857     20860     20863
     20859     20857     20860     20861     20859     20857     20860     20862
     20859     20857     20860     20863     20860     20863     20866     20867
     20860     20863     20866     20868     20860     20863     20866     20869
     20861     20860     20863     20864     20861     20860     20863     20865
     20861     20860     20863     20866     20862     20860     20863     20864
     20862     20860     20863     20865     20862     20860     20863     20866
     20863     20866     20869     20870     20863     20866     20869     20871
     20863     20866     20869     20872     20864     20863     20866     20867
     20864     20863     20866     20868     20864     20863     20866     20869
     20865     20863     20866     20867     20865     20863     20866     20868
     20865     20863     20866     20869     20866     20869     20872     20873
     20866     20869     20872     20874     20866     20869     20872     20875
     20867     20866     20869     20870     20867     20866     20869     20871
     20867     20866     20869     20872     20868     20866     20869     20870
     20868     20866     20869     20871     20868     20866     20869     20872
     20870     20869     20872     20873     20870     20869     20872     20874
     20870     20869     20872     20875     20871     20869     20872     20873
     20871     20869     20872     20874     20871     20869     20872     20875
     20876     20880     20883     20884     20876     20880     20883     20885
     20876     20880     20883     20890     20877     20876     20880     20881
     20877     20876     20880     20882     20877     20876     20880     20883
     20878     20876     20880     20881     20878     20876     20880     20882
     20878     20876     20880     20883     20879     20876     20880     20881
     20879     20876     20880     20882     20879     20876     20880     20883
     20880     20883     20890     20886     20881     20880     20883     20884
     20881     20880     20883     20885     20881     20880     20883     20890
     20882     20880     20883     20884     20882     20880     20883     20885
     20882     20880     20883     20890     20883     20890     20886     20887
     20883     20890     20886     20888     20883     20890     20886     20889
     20884     20883     20890     20886     20885     20883     20890     20886
     20886     20889     20891     20892     20886     20889     20891     20893
     20886     20889     20891     20894     20887     20886     20889     20891
     20888     20886     20889     20891     20889     20891     20894     20895
     20889     20891     20894     20896     20889     20891     20894     20902
     20890     20886     20889     20891     20891     20894     20896     20897
     20891     20894     20902     20903     20891     20894     20902     20904
     20891     20894     20902     20905     20892     20891     20894     20895
     20892     20891     20894     20896     20892     20891     20894     20902
     20893     20891     20894     20895     20893     20891     20894     20896
     20893     20891     20894     20902     20894     20896     20897     20898
     20894     20896     20897     20899     20894     20902     20905     20906
     20895     20894     20896     20897     20895     20894     20902     20903
     20895     20894     20902     20904     20895     20894     20902     20905
     20896     20894     20902     20903     20896     20894     20902     20904
     20896     20894     20902     20905     20896     20897     20899     20900
     20896     20897     20899     20901     20896     20897     20899     20911
     20897     20896     20894     20902     20897     20899     20911     20912
     20897     20899     20911     20913     20897     20899     20911     20914
     20898     20897     20899     20900     20898     20897     20899     20901
     20898     20897     20899     20911     20899     20911     20914     20915
     20899     20911     20914     20916     20899     20911     20914     20917
     20900     20899     20911     20912     20900     20899     20911     20913
     20900     20899     20911     20914     20901     20899     20911     20912
     20901     20899     20911     20913     20901     20899     20911     20914
     20902     20905     20906     20907     20902     20905     20906     20908
     20903     20902     20905     20906     20904     20902     20905     20906
     20905     20906     20908     20909     20905     20906     20908     20910
     20905     20906     20908     20955     20906     20908     20955     20956
     20906     20908     20955     20957     20906     20908     20955     20958
     20907     20906     20908     20909     20907     20906     20908     20910
     20907     20906     20908     20955     20908     20955     20958     20959
     20908     20955     20958     20960     20908     20955     20958     20961
     20909     20908     20955     20956     20909     20908     20955     20957
     20909     20908     20955     20958     20910     20908     20955     20956
     20910     20908     20955     20957     20910     20908     20955     20958
     20911     20914     20917     20918     20911     20914     20917     20919
     20911     20914     20917     20920     20912     20911     20914     20915
     20912     20911     20914     20916     20912     20911     20914     20917
     20913     20911     20914     20915     20913     20911     20914     20916
     20913     20911     20914     20917     20914     20917     20920     20921
     20914     20917     20920     20922     20914     20917     20920     20923
     20915     20914     20917     20918     20915     20914     20917     20919
     20915     20914     20917     20920     20916     20914     20917     20918
     20916     20914     20917     20919     20916     20914     20917     20920
     20917     20920     20923     20924     20917     20920     20923     20925
     20917     20920     20923     20926     20918     20917     20920     20921
     20918     20917     20920     20922     20918     20917     20920     20923
     20919     20917     20920     20921     20919     20917     20920     20922
     20919     20917     20920     20923     20920     20923     20926     20927
     20920     20923     20926     20928     20920     20923     20926     20929
     20921     20920     20923     20924     20921     20920     20923     20925
     20921     20920     20923     20926     20922     20920     20923     20924
     20922     20920     20923     20925     20922     20920     20923     20926
     20923     20926     20929     20930     20923     20926     20929     20931
     20923     20926     20929     20934     20924     20923     20926     20927
     20924     20923     20926     20928     20924     20923     20926     20929
     20925     20923     20926     20927     20925     20923     20926     20928
     20925     20923     20926     20929     20926     20929     20931     20932
     20926     20929     20931     20933     20926     20929     20931     20934
     20926     20929     20934     20931     20926     20929     20934     20935
     20926     20929     20934     20936     20927     20926     20929     20930
     20927     20926     20929     20931     20927     20926     20929     20934
     20928     20926     20929     20930     20928     20926     20929     20931
     20928     20926     20929     20934     20929     20931     20934     20935
     20929     20931     20934     20936     20929     20934     20931     20932
     20929     20934     20931     20933     20929     20934     20936     20937
     20929     20934     20936     20938     20929     20934     20936     20939
     20930     20929     20931     20932     20930     20929     20931     20933
     20930     20929     20931     20934     20930     20929     20934     20931
     20930     20929     20934     20935     20930     20929     20934     20936
     20931     20929     20934     20935     20931     20929     20934     20936
     20931     20934     20936     20937     20931     20934     20936     20938
     20931     20934     20936     20939     20932     20931     20929     20934
     20932     20931     20934     20935     20932     20931     20934     20936
     20933     20931     20929     20934     20933     20931     20934     20935
     20933     20931     20934     20936     20934     20936     20939     20940
     20934     20936     20939     20941     20934     20936     20939     20942
     20935     20934     20936     20937     20935     20934     20936     20938
     20935     20934     20936     20939     20936     20939     20942     20943
     20936     20939     20942     20944     20936     20939     20942     20945
     20937     20936     20939     20940     20937     20936     20939     20941
     20937     20936     20939     20942     20938     20936     20939     20940
     20938     20936     20939     20941     20938     20936     20939     20942
     20939     20942     20945     20946     20939     20942     20945     20947
     20939     20942     20945     20948     20940     20939     20942     20943
     20940     20939     20942     20944     20940     20939     20942     20945
     20941     20939     20942     20943     20941     20939     20942     20944
     20941     20939     20942     20945     20942     20945     20948     20949
     20942     20945     20948     20950     20942     20945     20948     20951
     20943     20942     20945     20946     20943     20942     20945     20947
     20943     20942     20945     20948     20944     20942     20945     20946
     20944     20942     20945     20947     20944     20942     20945     20948
     20945     20948     20951     20952     20945     20948     20951     20953
     20945     20948     20951     20954     20946     20945     20948     20949
     20946     20945     20948     20950     20946     20945     20948     20951
     20947     20945     20948     20949     20947     20945     20948     20950
     20947     20945     20948     20951     20949     20948     20951     20952
     20949     20948     20951     20953     20949     20948     20951     20954
     20950     20948     20951     20952     20950     20948     20951     20953
     20950     20948     20951     20954     20955     20958     20961     20962
     20955     20958     20961     20963     20955     20958     20961     20964
     20956     20955     20958     20959     20956     20955     20958     20960
     20956     20955     20958     20961     20957     20955     20958     20959
     20957     20955     20958     20960     20957     20955     20958     20961
     20958     20961     20964     20965     20958     20961     20964     20966
     20958     20961     20964     20967     20959     20958     20961     20962
     20959     20958     20961     20963     20959     20958     20961     20964
     20960     20958     20961     20962     20960     20958     20961     20963
     20960     20958     20961     20964     20961     20964     20967     20968
     20961     20964     20967     20969     20961     20964     20967     20970
     20962     20961     20964     20965     20962     20961     20964     20966
     20962     20961     20964     20967     20963     20961     20964     20965
     20963     20961     20964     20966     20963     20961     20964     20967
     20964     20967     20970     20971     20964     20967     20970     20972
     20964     20967     20970     20973     20965     20964     20967     20968
     20965     20964     20967     20969     20965     20964     20967     20970
     20966     20964     20967     20968     20966     20964     20967     20969
     20966     20964     20967     20970     20967     20970     20973     20974
     20967     20970     20973     20975     20967     20970     20973     20976
     20968     20967     20970     20971     20968     20967     20970     20972
     20968     20967     20970     20973     20969     20967     20970     20971
     20969     20967     20970     20972     20969     20967     20970     20973
     20970     20973     20976     20977     20970     20973     20976     20978
     20970     20973     20976     20979     20971     20970     20973     20974
     20971     20970     20973     20975     20971     20970     20973     20976
     20972     20970     20973     20974     20972     20970     20973     20975
     20972     20970     20973     20976     20973     20976     20979     20980
     20973     20976     20979     20981     20973     20976     20979     20982
     20974     20973     20976     20977     20974     20973     20976     20978
     20974     20973     20976     20979     20975     20973     20976     20977
     20975     20973     20976     20978     20975     20973     20976     20979
     20976     20979     20982     20983     20976     20979     20982     20984
     20976     20979     20982     20985     20977     20976     20979     20980
     20977     20976     20979     20981     20977     20976     20979     20982
     20978     20976     20979     20980     20978     20976     20979     20981
     20978     20976     20979     20982     20979     20982     20985     20986
     20979     20982     20985     20987     20979     20982     20985     20988
     20980     20979     20982     20983     20980     20979     20982     20984
     20980     20979     20982     20985     20981     20979     20982     20983
     20981     20979     20982     20984     20981     20979     20982     20985
     20982     20985     20988     20989     20982     20985     20988     20990
     20982     20985     20988     20991     20983     20982     20985     20986
     20983     20982     20985     20987     20983     20982     20985     20988
     20984     20982     20985     20986     20984     20982     20985     20987
     20984     20982     20985     20988     20985     20988     20991     20992
     20985     20988     20991     20993     20985     20988     20991     20994
     20986     20985     20988     20989     20986     20985     20988     20990
     20986     20985     20988     20991     20987     20985     20988     20989
     20987     20985     20988     20990     20987     20985     20988     20991
     20988     20991     20994     20995     20988     20991     20994     20996
     20988     20991     20994     20997     20989     20988     20991     20992
     20989     20988     20991     20993     20989     20988     20991     20994
     20990     20988     20991     20992     20990     20988     20991     20993
     20990     20988     20991     20994     20992     20991     20994     20995
     20992     20991     20994     20996     20992     20991     20994     20997
     20993     20991     20994     20995     20993     20991     20994     20996
     20993     20991     20994     20997     20998     21002     21005     21006
     20998     21002     21005     21007     20998     21002     21005     21012
     20999     20998     21002     21003     20999     20998     21002     21004
     20999     20998     21002     21005     21000     20998     21002     21003
     21000     20998     21002     21004     21000     20998     21002     21005
     21001     20998     21002     21003     21001     20998     21002     21004
     21001     20998     21002     21005     21002     21005     21012     21008
     21003     21002     21005     21006     21003     21002     21005     21007
     21003     21002     21005     21012     21004     21002     21005     21006
     21004     21002     21005     21007     21004     21002     21005     21012
     21005     21012     21008     21009     21005     21012     21008     21010
     21005     21012     21008     21011     21006     21005     21012     21008
     21007     21005     21012     21008     21008     21011     21013     21014
     21008     21011     21013     21015     21008     21011     21013     21016
     21009     21008     21011     21013     21010     21008     21011     21013
     21011     21013     21016     21017     21011     21013     21016     21018
     21011     21013     21016     21024     21012     21008     21011     21013
     21013     21016     21018     21019     21013     21016     21024     21025
     21013     21016     21024     21026     21013     21016     21024     21027
     21014     21013     21016     21017     21014     21013     21016     21018
     21014     21013     21016     21024     21015     21013     21016     21017
     21015     21013     21016     21018     21015     21013     21016     21024
     21016     21018     21019     21020     21016     21018     21019     21021
     21016     21024     21027     21028     21017     21016     21018     21019
     21017     21016     21024     21025     21017     21016     21024     21026
     21017     21016     21024     21027     21018     21016     21024     21025
     21018     21016     21024     21026     21018     21016     21024     21027
     21018     21019     21021     21022     21018     21019     21021     21023
     21018     21019     21021     21033     21019     21018     21016     21024
     21019     21021     21033     21034     21019     21021     21033     21035
     21019     21021     21033     21036     21020     21019     21021     21022
     21020     21019     21021     21023     21020     21019     21021     21033
     21021     21033     21036     21037     21021     21033     21036     21038
     21021     21033     21036     21039     21022     21021     21033     21034
     21022     21021     21033     21035     21022     21021     21033     21036
     21023     21021     21033     21034     21023     21021     21033     21035
     21023     21021     21033     21036     21024     21027     21028     21029
     21024     21027     21028     21030     21025     21024     21027     21028
     21026     21024     21027     21028     21027     21028     21030     21031
     21027     21028     21030     21032     21027     21028     21030     21074
     21028     21030     21074     21075     21028     21030     21074     21076
     21028     21030     21074     21077     21029     21028     21030     21031
     21029     21028     21030     21032     21029     21028     21030     21074
     21030     21074     21077     21078     21030     21074     21077     21079
     21030     21074     21077     21080     21031     21030     21074     21075
     21031     21030     21074     21076     21031     21030     21074     21077
     21032     21030     21074     21075     21032     21030     21074     21076
     21032     21030     21074     21077     21033     21036     21039     21040
     21033     21036     21039     21041     21033     21036     21039     21042
     21034     21033     21036     21037     21034     21033     21036     21038
     21034     21033     21036     21039     21035     21033     21036     21037
     21035     21033     21036     21038     21035     21033     21036     21039
     21036     21039     21042     21043     21036     21039     21042     21044
     21036     21039     21042     21045     21037     21036     21039     21040
     21037     21036     21039     21041     21037     21036     21039     21042
     21038     21036     21039     21040     21038     21036     21039     21041
     21038     21036     21039     21042     21039     21042     21045     21046
     21039     21042     21045     21047     21039     21042     21045     21048
     21040     21039     21042     21043     21040     21039     21042     21044
     21040     21039     21042     21045     21041     21039     21042     21043
     21041     21039     21042     21044     21041     21039     21042     21045
     21042     21045     21048     21049     21042     21045     21048     21050
     21042     21045     21048     21051     21043     21042     21045     21046
     21043     21042     21045     21047     21043     21042     21045     21048
     21044     21042     21045     21046     21044     21042     21045     21047
     21044     21042     21045     21048     21045     21048     21051     21052
     21045     21048     21051     21053     21046     21045     21048     21049
     21046     21045     21048     21050     21046     21045     21048     21051
     21047     21045     21048     21049     21047     21045     21048     21050
     21047     21045     21048     21051     21048     21051     21053     21054
     21048     21051     21053     21055     21049     21048     21051     21052
     21049     21048     21051     21053     21050     21048     21051     21052
     21050     21048     21051     21053     21051     21053     21055     21056
     21051     21053     21055     21057     21051     21053     21055     21058
     21052     21051     21053     21054     21052     21051     21053     21055
     21053     21055     21058     21059     21053     21055     21058     21060
     21053     21055     21058     21061     21054     21053     21055     21056
     21054     21053     21055     21057     21054     21053     21055     21058
     21055     21058     21061     21062     21055     21058     21061     21063
     21055     21058     21061     21064     21056     21055     21058     21059
     21056     21055     21058     21060     21056     21055     21058     21061
     21057     21055     21058     21059     21057     21055     21058     21060
     21057     21055     21058     21061     21058     21061     21064     21065
     21058     21061     21064     21066     21058     21061     21064     21067
     21059     21058     21061     21062     21059     21058     21061     21063
     21059     21058     21061     21064     21060     21058     21061     21062
     21060     21058     21061     21063     21060     21058     21061     21064
     21061     21064     21067     21068     21061     21064     21067     21069
     21061     21064     21067     21070     21062     21061     21064     21065
     21062     21061     21064     21066     21062     21061     21064     21067
     21063     21061     21064     21065     21063     21061     21064     21066
     21063     21061     21064     21067     21064     21067     21070     21071
     21064     21067     21070     21072     21064     21067     21070     21073
     21065     21064     21067     21068     21065     21064     21067     21069
     21065     21064     21067     21070     21066     21064     21067     21068
     21066     21064     21067     21069     21066     21064     21067     21070
     21068     21067     21070     21071     21068     21067     21070     21072
     21068     21067     21070     21073     21069     21067     21070     21071
     21069     21067     21070     21072     21069     21067     21070     21073
     21074     21077     21080     21081     21074     21077     21080     21082
     21074     21077     21080     21083     21075     21074     21077     21078
     21075     21074     21077     21079     21075     21074     21077     21080
     21076     21074     21077     21078     21076     21074     21077     21079
     21076     21074     21077     21080     21077     21080     21083     21084
     21077     21080     21083     21085     21077     21080     21083     21086
     21078     21077     21080     21081     21078     21077     21080     21082
     21078     21077     21080     21083     21079     21077     21080     21081
     21079     21077     21080     21082     21079     21077     21080     21083
     21080     21083     21086     21087     21080     21083     21086     21088
     21080     21083     21086     21089     21081     21080     21083     21084
     21081     21080     21083     21085     21081     21080     21083     21086
     21082     21080     21083     21084     21082     21080     21083     21085
     21082     21080     21083     21086     21083     21086     21089     21090
     21083     21086     21089     21091     21083     21086     21089     21092
     21084     21083     21086     21087     21084     21083     21086     21088
     21084     21083     21086     21089     21085     21083     21086     21087
     21085     21083     21086     21088     21085     21083     21086     21089
     21086     21089     21092     21093     21086     21089     21092     21094
     21087     21086     21089     21090     21087     21086     21089     21091
     21087     21086     21089     21092     21088     21086     21089     21090
     21088     21086     21089     21091     21088     21086     21089     21092
     21089     21092     21094     21095     21089     21092     21094     21096
     21090     21089     21092     21093     21090     21089     21092     21094
     21091     21089     21092     21093     21091     21089     21092     21094
     21092     21094     21096     21097     21092     21094     21096     21098
     21092     21094     21096     21099     21093     21092     21094     21095
     21093     21092     21094     21096     21094     21096     21099     21100
     21094     21096     21099     21101     21094     21096     21099     21102
     21095     21094     21096     21097     21095     21094     21096     21098
     21095     21094     21096     21099     21096     21099     21102     21103
     21096     21099     21102     21104     21096     21099     21102     21105
     21097     21096     21099     21100     21097     21096     21099     21101
     21097     21096     21099     21102     21098     21096     21099     21100
     21098     21096     21099     21101     21098     21096     21099     21102
     21099     21102     21105     21106     21099     21102     21105     21107
     21099     21102     21105     21108     21100     21099     21102     21103
     21100     21099     21102     21104     21100     21099     21102     21105
     21101     21099     21102     21103     21101     21099     21102     21104
     21101     21099     21102     21105     21102     21105     21108     21109
     21102     21105     21108     21110     21102     21105     21108     21111
     21103     21102     21105     21106     21103     21102     21105     21107
     21103     21102     21105     21108     21104     21102     21105     21106
     21104     21102     21105     21107     21104     21102     21105     21108
     21105     21108     21111     21112     21105     21108     21111     21113
     21105     21108     21111     21114     21106     21105     21108     21109
     21106     21105     21108     21110     21106     21105     21108     21111
     21107     21105     21108     21109     21107     21105     21108     21110
     21107     21105     21108     21111     21108     21111     21114     21115
     21108     21111     21114     21116     21108     21111     21114     21117
     21109     21108     21111     21112     21109     21108     21111     21113
     21109     21108     21111     21114     21110     21108     21111     21112
     21110     21108     21111     21113     21110     21108     21111     21114
     21111     21114     21117     21118     21111     21114     21117     21119
     21111     21114     21117     21120     21112     21111     21114     21115
     21112     21111     21114     21116     21112     21111     21114     21117
     21113     21111     21114     21115     21113     21111     21114     21116
     21113     21111     21114     21117     21115     21114     21117     21118
     21115     21114     21117     21119     21115     21114     21117     21120
     21116     21114     21117     21118     21116     21114     21117     21119
     21116     21114     21117     21120     21121     21126     21128     21129
     21121     21126     21130     21131     21121     21126     21130     21132
     21121     21126     21130     21137     21122     21121     21124     21125
     21122     21121     21126     21127     21122     21121     21126     21128
     21122     21121     21126     21130     21123     21121     21124     21125
     21123     21121     21126     21127     21123     21121     21126     21128
     21123     21121     21126     21130     21124     21121     21126     21127
     21124     21121     21126     21128     21124     21121     21126     21130
     21125     21124     21121     21126     21126     21130     21137     21133
     21127     21126     21128     21129     21127     21126     21130     21131
     21127     21126     21130     21132     21127     21126     21130     21137
     21128     21126     21130     21131     21128     21126     21130     21132
     21128     21126     21130     21137     21129     21128     21126     21130
     21130     21137     21133     21134     21130     21137     21133     21135
     21130     21137     21133     21136     21131     21130     21137     21133
     21132     21130     21137     21133     21133     21136     21138     21139
     21133     21136     21138     21140     21133     21136     21138     21141
     21134     21133     21136     21138     21135     21133     21136     21138
     21136     21138     21141     21142     21136     21138     21141     21143
     21136     21138     21141     21149     21137     21133     21136     21138
     21138     21141     21143     21144     21138     21141     21149     21150
     21138     21141     21149     21151     21138     21141     21149     21152
     21139     21138     21141     21142     21139     21138     21141     21143
     21139     21138     21141     21149     21140     21138     21141     21142
     21140     21138     21141     21143     21140     21138     21141     21149
     21141     21143     21144     21145     21141     21143     21144     21146
     21141     21149     21152     21153     21142     21141     21143     21144
     21142     21141     21149     21150     21142     21141     21149     21151
     21142     21141     21149     21152     21143     21141     21149     21150
     21143     21141     21149     21151     21143     21141     21149     21152
     21143     21144     21146     21147     21143     21144     21146     21148
     21143     21144     21146     21158     21144     21143     21141     21149
     21144     21146     21158     21159     21144     21146     21158     21160
     21144     21146     21158     21161     21145     21144     21146     21147
     21145     21144     21146     21148     21145     21144     21146     21158
     21146     21158     21161     21162     21146     21158     21161     21163
     21146     21158     21161     21164     21147     21146     21158     21159
     21147     21146     21158     21160     21147     21146     21158     21161
     21148     21146     21158     21159     21148     21146     21158     21160
     21148     21146     21158     21161     21149     21152     21153     21154
     21149     21152     21153     21155     21150     21149     21152     21153
     21151     21149     21152     21153     21152     21153     21155     21156
     21152     21153     21155     21157     21152     21153     21155     21199
     21153     21155     21199     21200     21153     21155     21199     21201
     21153     21155     21199     21202     21154     21153     21155     21156
     21154     21153     21155     21157     21154     21153     21155     21199
     21155     21199     21202     21203     21155     21199     21202     21204
     21155     21199     21202     21205     21156     21155     21199     21200
     21156     21155     21199     21201     21156     21155     21199     21202
     21157     21155     21199     21200     21157     21155     21199     21201
     21157     21155     21199     21202     21158     21161     21164     21165
     21158     21161     21164     21166     21158     21161     21164     21167
     21159     21158     21161     21162     21159     21158     21161     21163
     21159     21158     21161     21164     21160     21158     21161     21162
     21160     21158     21161     21163     21160     21158     21161     21164
     21161     21164     21167     21168     21161     21164     21167     21169
     21161     21164     21167     21170     21162     21161     21164     21165
     21162     21161     21164     21166     21162     21161     21164     21167
     21163     21161     21164     21165     21163     21161     21164     21166
     21163     21161     21164     21167     21164     21167     21170     21171
     21164     21167     21170     21172     21164     21167     21170     21173
     21165     21164     21167     21168     21165     21164     21167     21169
     21165     21164     21167     21170     21166     21164     21167     21168
     21166     21164     21167     21169     21166     21164     21167     21170
     21167     21170     21173     21174     21167     21170     21173     21175
     21167     21170     21173     21176     21168     21167     21170     21171
     21168     21167     21170     21172     21168     21167     21170     21173
     21169     21167     21170     21171     21169     21167     21170     21172
     21169     21167     21170     21173     21170     21173     21176     21177
     21170     21173     21176     21178     21171     21170     21173     21174
     21171     21170     21173     21175     21171     21170     21173     21176
     21172     21170     21173     21174     21172     21170     21173     21175
     21172     21170     21173     21176     21173     21176     21178     21179
     21173     21176     21178     21180     21174     21173     21176     21177
     21174     21173     21176     21178     21175     21173     21176     21177
     21175     21173     21176     21178     21176     21178     21180     21181
     21176     21178     21180     21182     21176     21178     21180     21183
     21177     21176     21178     21179     21177     21176     21178     21180
     21178     21180     21183     21184     21178     21180     21183     21185
     21178     21180     21183     21186     21179     21178     21180     21181
     21179     21178     21180     21182     21179     21178     21180     21183
     21180     21183     21186     21187     21180     21183     21186     21188
     21180     21183     21186     21189     21181     21180     21183     21184
     21181     21180     21183     21185     21181     21180     21183     21186
     21182     21180     21183     21184     21182     21180     21183     21185
     21182     21180     21183     21186     21183     21186     21189     21190
     21183     21186     21189     21191     21183     21186     21189     21192
     21184     21183     21186     21187     21184     21183     21186     21188
     21184     21183     21186     21189     21185     21183     21186     21187
     21185     21183     21186     21188     21185     21183     21186     21189
     21186     21189     21192     21193     21186     21189     21192     21194
     21186     21189     21192     21195     21187     21186     21189     21190
     21187     21186     21189     21191     21187     21186     21189     21192
     21188     21186     21189     21190     21188     21186     21189     21191
     21188     21186     21189     21192     21189     21192     21195     21196
     21189     21192     21195     21197     21189     21192     21195     21198
     21190     21189     21192     21193     21190     21189     21192     21194
     21190     21189     21192     21195     21191     21189     21192     21193
     21191     21189     21192     21194     21191     21189     21192     21195
     21193     21192     21195     21196     21193     21192     21195     21197
     21193     21192     21195     21198     21194     21192     21195     21196
     21194     21192     21195     21197     21194     21192     21195     21198
     21199     21202     21205     21206     21199     21202     21205     21207
     21199     21202     21205     21208     21200     21199     21202     21203
     21200     21199     21202     21204     21200     21199     21202     21205
     21201     21199     21202     21203     21201     21199     21202     21204
     21201     21199     21202     21205     21202     21205     21208     21209
     21202     21205     21208     21210     21202     21205     21208     21211
     21203     21202     21205     21206     21203     21202     21205     21207
     21203     21202     21205     21208     21204     21202     21205     21206
     21204     21202     21205     21207     21204     21202     21205     21208
     21205     21208     21211     21212     21205     21208     21211     21213
     21205     21208     21211     21214     21206     21205     21208     21209
     21206     21205     21208     21210     21206     21205     21208     21211
     21207     21205     21208     21209     21207     21205     21208     21210
     21207     21205     21208     21211     21208     21211     21214     21215
     21208     21211     21214     21216     21208     21211     21214     21217
     21209     21208     21211     21212     21209     21208     21211     21213
     21209     21208     21211     21214     21210     21208     21211     21212
     21210     21208     21211     21213     21210     21208     21211     21214
     21211     21214     21217     21218     21211     21214     21217     21219
     21211     21214     21217     21220     21212     21211     21214     21215
     21212     21211     21214     21216     21212     21211     21214     21217
     21213     21211     21214     21215     21213     21211     21214     21216
     21213     21211     21214     21217     21214     21217     21220     21221
     21214     21217     21220     21222     21214     21217     21220     21223
     21215     21214     21217     21218     21215     21214     21217     21219
     21215     21214     21217     21220     21216     21214     21217     21218
     21216     21214     21217     21219     21216     21214     21217     21220
     21217     21220     21223     21224     21217     21220     21223     21225
     21217     21220     21223     21226     21218     21217     21220     21221
     21218     21217     21220     21222     21218     21217     21220     21223
     21219     21217     21220     21221     21219     21217     21220     21222
     21219     21217     21220     21223     21220     21223     21226     21227
     21220     21223     21226     21228     21220     21223     21226     21229
     21221     21220     21223     21224     21221     21220     21223     21225
     21221     21220     21223     21226     21222     21220     21223     21224
     21222     21220     21223     21225     21222     21220     21223     21226
     21223     21226     21229     21230     21223     21226     21229     21231
     21223     21226     21229     21232     21224     21223     21226     21227
     21224     21223     21226     21228     21224     21223     21226     21229
     21225     21223     21226     21227     21225     21223     21226     21228
     21225     21223     21226     21229     21226     21229     21232     21233
     21226     21229     21232     21234     21226     21229     21232     21235
     21227     21226     21229     21230     21227     21226     21229     21231
     21227     21226     21229     21232     21228     21226     21229     21230
     21228     21226     21229     21231     21228     21226     21229     21232
     21229     21232     21235     21236     21229     21232     21235     21237
     21229     21232     21235     21238     21230     21229     21232     21233
     21230     21229     21232     21234     21230     21229     21232     21235
     21231     21229     21232     21233     21231     21229     21232     21234
     21231     21229     21232     21235     21232     21235     21238     21239
     21232     21235     21238     21240     21232     21235     21238     21241
     21233     21232     21235     21236     21233     21232     21235     21237
     21233     21232     21235     21238     21234     21232     21235     21236
     21234     21232     21235     21237     21234     21232     21235     21238
     21236     21235     21238     21239     21236     21235     21238     21240
     21236     21235     21238     21241     21237     21235     21238     21239
     21237     21235     21238     21240     21237     21235     21238     21241
     21242     21246     21249     21250     21242     21246     21249     21251
     21242     21246     21249     21256     21243     21242     21246     21247
     21243     21242     21246     21248     21243     21242     21246     21249
     21244     21242     21246     21247     21244     21242     21246     21248
     21244     21242     21246     21249     21245     21242     21246     21247
     21245     21242     21246     21248     21245     21242     21246     21249
     21246     21249     21256     21252     21247     21246     21249     21250
     21247     21246     21249     21251     21247     21246     21249     21256
     21248     21246     21249     21250     21248     21246     21249     21251
     21248     21246     21249     21256     21249     21256     21252     21253
     21249     21256     21252     21254     21249     21256     21252     21255
     21250     21249     21256     21252     21251     21249     21256     21252
     21252     21255     21257     21258     21252     21255     21257     21259
     21252     21255     21257     21260     21253     21252     21255     21257
     21254     21252     21255     21257     21255     21257     21260     21261
     21255     21257     21260     21262     21255     21257     21260     21268
     21256     21252     21255     21257     21257     21260     21262     21263
     21257     21260     21268     21269     21257     21260     21268     21270
     21257     21260     21268     21271     21258     21257     21260     21261
     21258     21257     21260     21262     21258     21257     21260     21268
     21259     21257     21260     21261     21259     21257     21260     21262
     21259     21257     21260     21268     21260     21262     21263     21264
     21260     21262     21263     21265     21260     21268     21271     21272
     21261     21260     21262     21263     21261     21260     21268     21269
     21261     21260     21268     21270     21261     21260     21268     21271
     21262     21260     21268     21269     21262     21260     21268     21270
     21262     21260     21268     21271     21262     21263     21265     21266
     21262     21263     21265     21267     21262     21263     21265     21277
     21263     21262     21260     21268     21263     21265     21277     21278
     21263     21265     21277     21279     21263     21265     21277     21280
     21264     21263     21265     21266     21264     21263     21265     21267
     21264     21263     21265     21277     21265     21277     21280     21281
     21265     21277     21280     21282     21265     21277     21280     21283
     21266     21265     21277     21278     21266     21265     21277     21279
     21266     21265     21277     21280     21267     21265     21277     21278
     21267     21265     21277     21279     21267     21265     21277     21280
     21268     21271     21272     21273     21268     21271     21272     21274
     21269     21268     21271     21272     21270     21268     21271     21272
     21271     21272     21274     21275     21271     21272     21274     21276
     21271     21272     21274     21321     21272     21274     21321     21322
     21272     21274     21321     21323     21272     21274     21321     21324
     21273     21272     21274     21275     21273     21272     21274     21276
     21273     21272     21274     21321     21274     21321     21324     21325
     21274     21321     21324     21326     21274     21321     21324     21327
     21275     21274     21321     21322     21275     21274     21321     21323
     21275     21274     21321     21324     21276     21274     21321     21322
     21276     21274     21321     21323     21276     21274     21321     21324
     21277     21280     21283     21284     21277     21280     21283     21285
     21277     21280     21283     21286     21278     21277     21280     21281
     21278     21277     21280     21282     21278     21277     21280     21283
     21279     21277     21280     21281     21279     21277     21280     21282
     21279     21277     21280     21283     21280     21283     21286     21287
     21280     21283     21286     21288     21280     21283     21286     21289
     21281     21280     21283     21284     21281     21280     21283     21285
     21281     21280     21283     21286     21282     21280     21283     21284
     21282     21280     21283     21285     21282     21280     21283     21286
     21283     21286     21289     21290     21283     21286     21289     21291
     21283     21286     21289     21292     21284     21283     21286     21287
     21284     21283     21286     21288     21284     21283     21286     21289
     21285     21283     21286     21287     21285     21283     21286     21288
     21285     21283     21286     21289     21286     21289     21292     21293
     21286     21289     21292     21294     21286     21289     21292     21295
     21287     21286     21289     21290     21287     21286     21289     21291
     21287     21286     21289     21292     21288     21286     21289     21290
     21288     21286     21289     21291     21288     21286     21289     21292
     21289     21292     21295     21296     21289     21292     21295     21297
     21289     21292     21295     21300     21290     21289     21292     21293
     21290     21289     21292     21294     21290     21289     21292     21295
     21291     21289     21292     21293     21291     21289     21292     21294
     21291     21289     21292     21295     21292     21295     21297     21298
     21292     21295     21297     21299     21292     21295     21297     21300
     21292     21295     21300     21297     21292     21295     21300     21301
     21292     21295     21300     21302     21293     21292     21295     21296
     21293     21292     21295     21297     21293     21292     21295     21300
     21294     21292     21295     21296     21294     21292     21295     21297
     21294     21292     21295     21300     21295     21297     21300     21301
     21295     21297     21300     21302     21295     21300     21297     21298
     21295     21300     21297     21299     21295     21300     21302     21303
     21295     21300     21302     21304     21295     21300     21302     21305
     21296     21295     21297     21298     21296     21295     21297     21299
     21296     21295     21297     21300     21296     21295     21300     21297
     21296     21295     21300     21301     21296     21295     21300     21302
     21297     21295     21300     21301     21297     21295     21300     21302
     21297     21300     21302     21303     21297     21300     21302     21304
     21297     21300     21302     21305     21298     21297     21295     21300
     21298     21297     21300     21301     21298     21297     21300     21302
     21299     21297     21295     21300     21299     21297     21300     21301
     21299     21297     21300     21302     21300     21302     21305     21306
     21300     21302     21305     21307     21300     21302     21305     21308
     21301     21300     21302     21303     21301     21300     21302     21304
     21301     21300     21302     21305     21302     21305     21308     21309
     21302     21305     21308     21310     21302     21305     21308     21311
     21303     21302     21305     21306     21303     21302     21305     21307
     21303     21302     21305     21308     21304     21302     21305     21306
     21304     21302     21305     21307     21304     21302     21305     21308
     21305     21308     21311     21312     21305     21308     21311     21313
     21305     21308     21311     21314     21306     21305     21308     21309
     21306     21305     21308     21310     21306     21305     21308     21311
     21307     21305     21308     21309     21307     21305     21308     21310
     21307     21305     21308     21311     21308     21311     21314     21315
     21308     21311     21314     21316     21308     21311     21314     21317
     21309     21308     21311     21312     21309     21308     21311     21313
     21309     21308     21311     21314     21310     21308     21311     21312
     21310     21308     21311     21313     21310     21308     21311     21314
     21311     21314     21317     21318     21311     21314     21317     21319
     21311     21314     21317     21320     21312     21311     21314     21315
     21312     21311     21314     21316     21312     21311     21314     21317
     21313     21311     21314     21315     21313     21311     21314     21316
     21313     21311     21314     21317     21315     21314     21317     21318
     21315     21314     21317     21319     21315     21314     21317     21320
     21316     21314     21317     21318     21316     21314     21317     21319
     21316     21314     21317     21320     21321     21324     21327     21328
     21321     21324     21327     21329     21321     21324     21327     21330
     21322     21321     21324     21325     21322     21321     21324     21326
     21322     21321     21324     21327     21323     21321     21324     21325
     21323     21321     21324     21326     21323     21321     21324     21327
     21324     21327     21330     21331     21324     21327     21330     21332
     21324     21327     21330     21333     21325     21324     21327     21328
     21325     21324     21327     21329     21325     21324     21327     21330
     21326     21324     21327     21328     21326     21324     21327     21329
     21326     21324     21327     21330     21327     21330     21333     21334
     21327     21330     21333     21335     21327     21330     21333     21336
     21328     21327     21330     21331     21328     21327     21330     21332
     21328     21327     21330     21333     21329     21327     21330     21331
     21329     21327     21330     21332     21329     21327     21330     21333
     21330     21333     21336     21337     21330     21333     21336     21338
     21330     21333     21336     21339     21331     21330     21333     21334
     21331     21330     21333     21335     21331     21330     21333     21336
     21332     21330     21333     21334     21332     21330     21333     21335
     21332     21330     21333     21336     21333     21336     21339     21340
     21333     21336     21339     21341     21333     21336     21339     21342
     21334     21333     21336     21337     21334     21333     21336     21338
     21334     21333     21336     21339     21335     21333     21336     21337
     21335     21333     21336     21338     21335     21333     21336     21339
     21336     21339     21342     21343     21336     21339     21342     21344
     21336     21339     21342     21345     21337     21336     21339     21340
     21337     21336     21339     21341     21337     21336     21339     21342
     21338     21336     21339     21340     21338     21336     21339     21341
     21338     21336     21339     21342     21339     21342     21345     21346
     21339     21342     21345     21347     21339     21342     21345     21348
     21340     21339     21342     21343     21340     21339     21342     21344
     21340     21339     21342     21345     21341     21339     21342     21343
     21341     21339     21342     21344     21341     21339     21342     21345
     21342     21345     21348     21349     21342     21345     21348     21350
     21342     21345     21348     21351     21343     21342     21345     21346
     21343     21342     21345     21347     21343     21342     21345     21348
     21344     21342     21345     21346     21344     21342     21345     21347
     21344     21342     21345     21348     21345     21348     21351     21352
     21345     21348     21351     21353     21345     21348     21351     21354
     21346     21345     21348     21349     21346     21345     21348     21350
     21346     21345     21348     21351     21347     21345     21348     21349
     21347     21345     21348     21350     21347     21345     21348     21351
     21348     21351     21354     21355     21348     21351     21354     21356
     21348     21351     21354     21357     21349     21348     21351     21352
     21349     21348     21351     21353     21349     21348     21351     21354
     21350     21348     21351     21352     21350     21348     21351     21353
     21350     21348     21351     21354     21351     21354     21357     21358
     21351     21354     21357     21359     21351     21354     21357     21360
     21352     21351     21354     21355     21352     21351     21354     21356
     21352     21351     21354     21357     21353     21351     21354     21355
     21353     21351     21354     21356     21353     21351     21354     21357
     21354     21357     21360     21361     21354     21357     21360     21362
     21354     21357     21360     21363     21355     21354     21357     21358
     21355     21354     21357     21359     21355     21354     21357     21360
     21356     21354     21357     21358     21356     21354     21357     21359
     21356     21354     21357     21360     21358     21357     21360     21361
     21358     21357     21360     21362     21358     21357     21360     21363
     21359     21357     21360     21361     21359     21357     21360     21362
     21359     21357     21360     21363     21364     21368     21371     21372
     21364     21368     21371     21373     21364     21368     21371     21378
     21365     21364     21368     21369     21365     21364     21368     21370
     21365     21364     21368     21371     21366     21364     21368     21369
     21366     21364     21368     21370     21366     21364     21368     21371
     21367     21364     21368     21369     21367     21364     21368     21370
     21367     21364     21368     21371     21368     21371     21378     21374
     21369     21368     21371     21372     21369     21368     21371     21373
     21369     21368     21371     21378     21370     21368     21371     21372
     21370     21368     21371     21373     21370     21368     21371     21378
     21371     21378     21374     21375     21371     21378     21374     21376
     21371     21378     21374     21377     21372     21371     21378     21374
     21373     21371     21378     21374     21374     21377     21379     21380
     21374     21377     21379     21381     21374     21377     21379     21382
     21375     21374     21377     21379     21376     21374     21377     21379
     21377     21379     21382     21383     21377     21379     21382     21384
     21377     21379     21382     21390     21378     21374     21377     21379
     21379     21382     21384     21385     21379     21382     21390     21391
     21379     21382     21390     21392     21379     21382     21390     21393
     21380     21379     21382     21383     21380     21379     21382     21384
     21380     21379     21382     21390     21381     21379     21382     21383
     21381     21379     21382     21384     21381     21379     21382     21390
     21382     21384     21385     21386     21382     21384     21385     21387
     21382     21390     21393     21394     21383     21382     21384     21385
     21383     21382     21390     21391     21383     21382     21390     21392
     21383     21382     21390     21393     21384     21382     21390     21391
     21384     21382     21390     21392     21384     21382     21390     21393
     21384     21385     21387     21388     21384     21385     21387     21389
     21384     21385     21387     21399     21385     21384     21382     21390
     21385     21387     21399     21400     21385     21387     21399     21401
     21385     21387     21399     21402     21386     21385     21387     21388
     21386     21385     21387     21389     21386     21385     21387     21399
     21387     21399     21402     21403     21387     21399     21402     21404
     21387     21399     21402     21405     21388     21387     21399     21400
     21388     21387     21399     21401     21388     21387     21399     21402
     21389     21387     21399     21400     21389     21387     21399     21401
     21389     21387     21399     21402     21390     21393     21394     21395
     21390     21393     21394     21396     21391     21390     21393     21394
     21392     21390     21393     21394     21393     21394     21396     21397
     21393     21394     21396     21398     21393     21394     21396     21443
     21394     21396     21443     21444     21394     21396     21443     21445
     21394     21396     21443     21446     21395     21394     21396     21397
     21395     21394     21396     21398     21395     21394     21396     21443
     21396     21443     21446     21447     21396     21443     21446     21448
     21396     21443     21446     21449     21397     21396     21443     21444
     21397     21396     21443     21445     21397     21396     21443     21446
     21398     21396     21443     21444     21398     21396     21443     21445
     21398     21396     21443     21446     21399     21402     21405     21406
     21399     21402     21405     21407     21399     21402     21405     21408
     21400     21399     21402     21403     21400     21399     21402     21404
     21400     21399     21402     21405     21401     21399     21402     21403
     21401     21399     21402     21404     21401     21399     21402     21405
     21402     21405     21408     21409     21402     21405     21408     21410
     21402     21405     21408     21411     21403     21402     21405     21406
     21403     21402     21405     21407     21403     21402     21405     21408
     21404     21402     21405     21406     21404     21402     21405     21407
     21404     21402     21405     21408     21405     21408     21411     21412
     21405     21408     21411     21413     21405     21408     21411     21414
     21406     21405     21408     21409     21406     21405     21408     21410
     21406     21405     21408     21411     21407     21405     21408     21409
     21407     21405     21408     21410     21407     21405     21408     21411
     21408     21411     21414     21415     21408     21411     21414     21416
     21408     21411     21414     21417     21409     21408     21411     21412
     21409     21408     21411     21413     21409     21408     21411     21414
     21410     21408     21411     21412     21410     21408     21411     21413
     21410     21408     21411     21414     21411     21414     21417     21418
     21411     21414     21417     21419     21411     21414     21417     21422
     21412     21411     21414     21415     21412     21411     21414     21416
     21412     21411     21414     21417     21413     21411     21414     21415
     21413     21411     21414     21416     21413     21411     21414     21417
     21414     21417     21419     21420     21414     21417     21419     21421
     21414     21417     21419     21422     21414     21417     21422     21419
     21414     21417     21422     21423     21414     21417     21422     21424
     21415     21414     21417     21418     21415     21414     21417     21419
     21415     21414     21417     21422     21416     21414     21417     21418
     21416     21414     21417     21419     21416     21414     21417     21422
     21417     21419     21422     21423     21417     21419     21422     21424
     21417     21422     21419     21420     21417     21422     21419     21421
     21417     21422     21424     21425     21417     21422     21424     21426
     21417     21422     21424     21427     21418     21417     21419     21420
     21418     21417     21419     21421     21418     21417     21419     21422
     21418     21417     21422     21419     21418     21417     21422     21423
     21418     21417     21422     21424     21419     21417     21422     21423
     21419     21417     21422     21424     21419     21422     21424     21425
     21419     21422     21424     21426     21419     21422     21424     21427
     21420     21419     21417     21422     21420     21419     21422     21423
     21420     21419     21422     21424     21421     21419     21417     21422
     21421     21419     21422     21423     21421     21419     21422     21424
     21422     21424     21427     21428     21422     21424     21427     21429
     21422     21424     21427     21430     21423     21422     21424     21425
     21423     21422     21424     21426     21423     21422     21424     21427
     21424     21427     21430     21431     21424     21427     21430     21432
     21424     21427     21430     21433     21425     21424     21427     21428
     21425     21424     21427     21429     21425     21424     21427     21430
     21426     21424     21427     21428     21426     21424     21427     21429
     21426     21424     21427     21430     21427     21430     21433     21434
     21427     21430     21433     21435     21427     21430     21433     21436
     21428     21427     21430     21431     21428     21427     21430     21432
     21428     21427     21430     21433     21429     21427     21430     21431
     21429     21427     21430     21432     21429     21427     21430     21433
     21430     21433     21436     21437     21430     21433     21436     21438
     21430     21433     21436     21439     21431     21430     21433     21434
     21431     21430     21433     21435     21431     21430     21433     21436
     21432     21430     21433     21434     21432     21430     21433     21435
     21432     21430     21433     21436     21433     21436     21439     21440
     21433     21436     21439     21441     21433     21436     21439     21442
     21434     21433     21436     21437     21434     21433     21436     21438
     21434     21433     21436     21439     21435     21433     21436     21437
     21435     21433     21436     21438     21435     21433     21436     21439
     21437     21436     21439     21440     21437     21436     21439     21441
     21437     21436     21439     21442     21438     21436     21439     21440
     21438     21436     21439     21441     21438     21436     21439     21442
     21443     21446     21449     21450     21443     21446     21449     21451
     21443     21446     21449     21452     21444     21443     21446     21447
     21444     21443     21446     21448     21444     21443     21446     21449
     21445     21443     21446     21447     21445     21443     21446     21448
     21445     21443     21446     21449     21446     21449     21452     21453
     21446     21449     21452     21454     21446     21449     21452     21455
     21447     21446     21449     21450     21447     21446     21449     21451
     21447     21446     21449     21452     21448     21446     21449     21450
     21448     21446     21449     21451     21448     21446     21449     21452
     21449     21452     21455     21456     21449     21452     21455     21457
     21449     21452     21455     21458     21450     21449     21452     21453
     21450     21449     21452     21454     21450     21449     21452     21455
     21451     21449     21452     21453     21451     21449     21452     21454
     21451     21449     21452     21455     21452     21455     21458     21459
     21452     21455     21458     21460     21452     21455     21458     21461
     21453     21452     21455     21456     21453     21452     21455     21457
     21453     21452     21455     21458     21454     21452     21455     21456
     21454     21452     21455     21457     21454     21452     21455     21458
     21455     21458     21461     21462     21455     21458     21461     21463
     21455     21458     21461     21464     21456     21455     21458     21459
     21456     21455     21458     21460     21456     21455     21458     21461
     21457     21455     21458     21459     21457     21455     21458     21460
     21457     21455     21458     21461     21458     21461     21464     21465
     21458     21461     21464     21466     21458     21461     21464     21467
     21459     21458     21461     21462     21459     21458     21461     21463
     21459     21458     21461     21464     21460     21458     21461     21462
     21460     21458     21461     21463     21460     21458     21461     21464
     21461     21464     21467     21468     21461     21464     21467     21469
     21461     21464     21467     21470     21462     21461     21464     21465
     21462     21461     21464     21466     21462     21461     21464     21467
     21463     21461     21464     21465     21463     21461     21464     21466
     21463     21461     21464     21467     21464     21467     21470     21471
     21464     21467     21470     21472     21464     21467     21470     21473
     21465     21464     21467     21468     21465     21464     21467     21469
     21465     21464     21467     21470     21466     21464     21467     21468
     21466     21464     21467     21469     21466     21464     21467     21470
     21467     21470     21473     21474     21467     21470     21473     21475
     21467     21470     21473     21476     21468     21467     21470     21471
     21468     21467     21470     21472     21468     21467     21470     21473
     21469     21467     21470     21471     21469     21467     21470     21472
     21469     21467     21470     21473     21470     21473     21476     21477
     21470     21473     21476     21478     21470     21473     21476     21479
     21471     21470     21473     21474     21471     21470     21473     21475
     21471     21470     21473     21476     21472     21470     21473     21474
     21472     21470     21473     21475     21472     21470     21473     21476
     21473     21476     21479     21480     21473     21476     21479     21481
     21473     21476     21479     21482     21474     21473     21476     21477
     21474     21473     21476     21478     21474     21473     21476     21479
     21475     21473     21476     21477     21475     21473     21476     21478
     21475     21473     21476     21479     21476     21479     21482     21483
     21476     21479     21482     21484     21476     21479     21482     21485
     21477     21476     21479     21480     21477     21476     21479     21481
     21477     21476     21479     21482     21478     21476     21479     21480
     21478     21476     21479     21481     21478     21476     21479     21482
     21480     21479     21482     21483     21480     21479     21482     21484
     21480     21479     21482     21485     21481     21479     21482     21483
     21481     21479     21482     21484     21481     21479     21482     21485
     21486     21490     21493     21494     21486     21490     21493     21495
     21486     21490     21493     21500     21487     21486     21490     21491
     21487     21486     21490     21492     21487     21486     21490     21493
     21488     21486     21490     21491     21488     21486     21490     21492
     21488     21486     21490     21493     21489     21486     21490     21491
     21489     21486     21490     21492     21489     21486     21490     21493
     21490     21493     21500     21496     21491     21490     21493     21494
     21491     21490     21493     21495     21491     21490     21493     21500
     21492     21490     21493     21494     21492     21490     21493     21495
     21492     21490     21493     21500     21493     21500     21496     21497
     21493     21500     21496     21498     21493     21500     21496     21499
     21494     21493     21500     21496     21495     21493     21500     21496
     21496     21499     21501     21502     21496     21499     21501     21503
     21496     21499     21501     21504     21497     21496     21499     21501
     21498     21496     21499     21501     21499     21501     21504     21505
     21499     21501     21504     21506     21499     21501     21504     21512
     21500     21496     21499     21501     21501     21504     21506     21507
     21501     21504     21512     21513     21501     21504     21512     21514
     21501     21504     21512     21515     21502     21501     21504     21505
     21502     21501     21504     21506     21502     21501     21504     21512
     21503     21501     21504     21505     21503     21501     21504     21506
     21503     21501     21504     21512     21504     21506     21507     21508
     21504     21506     21507     21509     21504     21512     21515     21516
     21505     21504     21506     21507     21505     21504     21512     21513
     21505     21504     21512     21514     21505     21504     21512     21515
     21506     21504     21512     21513     21506     21504     21512     21514
     21506     21504     21512     21515     21506     21507     21509     21510
     21506     21507     21509     21511     21506     21507     21509     21521
     21507     21506     21504     21512     21507     21509     21521     21522
     21507     21509     21521     21523     21507     21509     21521     21524
     21508     21507     21509     21510     21508     21507     21509     21511
     21508     21507     21509     21521     21509     21521     21524     21525
     21509     21521     21524     21526     21509     21521     21524     21527
     21510     21509     21521     21522     21510     21509     21521     21523
     21510     21509     21521     21524     21511     21509     21521     21522
     21511     21509     21521     21523     21511     21509     21521     21524
     21512     21515     21516     21517     21512     21515     21516     21518
     21513     21512     21515     21516     21514     21512     21515     21516
     21515     21516     21518     21519     21515     21516     21518     21520
     21515     21516     21518     21565     21516     21518     21565     21566
     21516     21518     21565     21567     21516     21518     21565     21568
     21517     21516     21518     21519     21517     21516     21518     21520
     21517     21516     21518     21565     21518     21565     21568     21569
     21518     21565     21568     21570     21518     21565     21568     21571
     21519     21518     21565     21566     21519     21518     21565     21567
     21519     21518     21565     21568     21520     21518     21565     21566
     21520     21518     21565     21567     21520     21518     21565     21568
     21521     21524     21527     21528     21521     21524     21527     21529
     21521     21524     21527     21530     21522     21521     21524     21525
     21522     21521     21524     21526     21522     21521     21524     21527
     21523     21521     21524     21525     21523     21521     21524     21526
     21523     21521     21524     21527     21524     21527     21530     21531
     21524     21527     21530     21532     21524     21527     21530     21533
     21525     21524     21527     21528     21525     21524     21527     21529
     21525     21524     21527     21530     21526     21524     21527     21528
     21526     21524     21527     21529     21526     21524     21527     21530
     21527     21530     21533     21534     21527     21530     21533     21535
     21527     21530     21533     21536     21528     21527     21530     21531
     21528     21527     21530     21532     21528     21527     21530     21533
     21529     21527     21530     21531     21529     21527     21530     21532
     21529     21527     21530     21533     21530     21533     21536     21537
     21530     21533     21536     21538     21530     21533     21536     21539
     21531     21530     21533     21534     21531     21530     21533     21535
     21531     21530     21533     21536     21532     21530     21533     21534
     21532     21530     21533     21535     21532     21530     21533     21536
     21533     21536     21539     21540     21533     21536     21539     21541
     21533     21536     21539     21544     21534     21533     21536     21537
     21534     21533     21536     21538     21534     21533     21536     21539
     21535     21533     21536     21537     21535     21533     21536     21538
     21535     21533     21536     21539     21536     21539     21541     21542
     21536     21539     21541     21543     21536     21539     21541     21544
     21536     21539     21544     21541     21536     21539     21544     21545
     21536     21539     21544     21546     21537     21536     21539     21540
     21537     21536     21539     21541     21537     21536     21539     21544
     21538     21536     21539     21540     21538     21536     21539     21541
     21538     21536     21539     21544     21539     21541     21544     21545
     21539     21541     21544     21546     21539     21544     21541     21542
     21539     21544     21541     21543     21539     21544     21546     21547
     21539     21544     21546     21548     21539     21544     21546     21549
     21540     21539     21541     21542     21540     21539     21541     21543
     21540     21539     21541     21544     21540     21539     21544     21541
     21540     21539     21544     21545     21540     21539     21544     21546
     21541     21539     21544     21545     21541     21539     21544     21546
     21541     21544     21546     21547     21541     21544     21546     21548
     21541     21544     21546     21549     21542     21541     21539     21544
     21542     21541     21544     21545     21542     21541     21544     21546
     21543     21541     21539     21544     21543     21541     21544     21545
     21543     21541     21544     21546     21544     21546     21549     21550
     21544     21546     21549     21551     21544     21546     21549     21552
     21545     21544     21546     21547     21545     21544     21546     21548
     21545     21544     21546     21549     21546     21549     21552     21553
     21546     21549     21552     21554     21546     21549     21552     21555
     21547     21546     21549     21550     21547     21546     21549     21551
     21547     21546     21549     21552     21548     21546     21549     21550
     21548     21546     21549     21551     21548     21546     21549     21552
     21549     21552     21555     21556     21549     21552     21555     21557
     21549     21552     21555     21558     21550     21549     21552     21553
     21550     21549     21552     21554     21550     21549     21552     21555
     21551     21549     21552     21553     21551     21549     21552     21554
     21551     21549     21552     21555     21552     21555     21558     21559
     21552     21555     21558     21560     21552     21555     21558     21561
     21553     21552     21555     21556     21553     21552     21555     21557
     21553     21552     21555     21558     21554     21552     21555     21556
     21554     21552     21555     21557     21554     21552     21555     21558
     21555     21558     21561     21562     21555     21558     21561     21563
     21555     21558     21561     21564     21556     21555     21558     21559
     21556     21555     21558     21560     21556     21555     21558     21561
     21557     21555     21558     21559     21557     21555     21558     21560
     21557     21555     21558     21561     21559     21558     21561     21562
     21559     21558     21561     21563     21559     21558     21561     21564
     21560     21558     21561     21562     21560     21558     21561     21563
     21560     21558     21561     21564     21565     21568     21571     21572
     21565     21568     21571     21573     21565     21568     21571     21574
     21566     21565     21568     21569     21566     21565     21568     21570
     21566     21565     21568     21571     21567     21565     21568     21569
     21567     21565     21568     21570     21567     21565     21568     21571
     21568     21571     21574     21575     21568     21571     21574     21576
     21568     21571     21574     21577     21569     21568     21571     21572
     21569     21568     21571     21573     21569     21568     21571     21574
     21570     21568     21571     21572     21570     21568     21571     21573
     21570     21568     21571     21574     21571     21574     21577     21578
     21571     21574     21577     21579     21571     21574     21577     21580
     21572     21571     21574     21575     21572     21571     21574     21576
     21572     21571     21574     21577     21573     21571     21574     21575
     21573     21571     21574     21576     21573     21571     21574     21577
     21574     21577     21580     21581     21574     21577     21580     21582
     21574     21577     21580     21583     21575     21574     21577     21578
     21575     21574     21577     21579     21575     21574     21577     21580
     21576     21574     21577     21578     21576     21574     21577     21579
     21576     21574     21577     21580     21577     21580     21583     21584
     21577     21580     21583     21585     21577     21580     21583     21586
     21578     21577     21580     21581     21578     21577     21580     21582
     21578     21577     21580     21583     21579     21577     21580     21581
     21579     21577     21580     21582     21579     21577     21580     21583
     21580     21583     21586     21587     21580     21583     21586     21588
     21580     21583     21586     21589     21581     21580     21583     21584
     21581     21580     21583     21585     21581     21580     21583     21586
     21582     21580     21583     21584     21582     21580     21583     21585
     21582     21580     21583     21586     21583     21586     21589     21590
     21583     21586     21589     21591     21583     21586     21589     21592
     21584     21583     21586     21587     21584     21583     21586     21588
     21584     21583     21586     21589     21585     21583     21586     21587
     21585     21583     21586     21588     21585     21583     21586     21589
     21586     21589     21592     21593     21586     21589     21592     21594
     21586     21589     21592     21595     21587     21586     21589     21590
     21587     21586     21589     21591     21587     21586     21589     21592
     21588     21586     21589     21590     21588     21586     21589     21591
     21588     21586     21589     21592     21589     21592     21595     21596
     21589     21592     21595     21597     21589     21592     21595     21598
     21590     21589     21592     21593     21590     21589     21592     21594
     21590     21589     21592     21595     21591     21589     21592     21593
     21591     21589     21592     21594     21591     21589     21592     21595
     21592     21595     21598     21599     21592     21595     21598     21600
     21592     21595     21598     21601     21593     21592     21595     21596
     21593     21592     21595     21597     21593     21592     21595     21598
     21594     21592     21595     21596     21594     21592     21595     21597
     21594     21592     21595     21598     21595     21598     21601     21602
     21595     21598     21601     21603     21595     21598     21601     21604
     21596     21595     21598     21599     21596     21595     21598     21600
     21596     21595     21598     21601     21597     21595     21598     21599
     21597     21595     21598     21600     21597     21595     21598     21601
     21598     21601     21604     21605     21598     21601     21604     21606
     21598     21601     21604     21607     21599     21598     21601     21602
     21599     21598     21601     21603     21599     21598     21601     21604
     21600     21598     21601     21602     21600     21598     21601     21603
     21600     21598     21601     21604     21602     21601     21604     21605
     21602     21601     21604     21606     21602     21601     21604     21607
     21603     21601     21604     21605     21603     21601     21604     21606
     21603     21601     21604     21607     21608     21612     21615     21616
     21608     21612     21615     21617     21608     21612     21615     21622
     21609     21608     21612     21613     21609     21608     21612     21614
     21609     21608     21612     21615     21610     21608     21612     21613
     21610     21608     21612     21614     21610     21608     21612     21615
     21611     21608     21612     21613     21611     21608     21612     21614
     21611     21608     21612     21615     21612     21615     21622     21618
     21613     21612     21615     21616     21613     21612     21615     21617
     21613     21612     21615     21622     21614     21612     21615     21616
     21614     21612     21615     21617     21614     21612     21615     21622
     21615     21622     21618     21619     21615     21622     21618     21620
     21615     21622     21618     21621     21616     21615     21622     21618
     21617     21615     21622     21618     21618     21621     21623     21624
     21618     21621     21623     21625     21618     21621     21623     21626
     21619     21618     21621     21623     21620     21618     21621     21623
     21621     21623     21626     21627     21621     21623     21626     21628
     21621     21623     21626     21634     21622     21618     21621     21623
     21623     21626     21628     21629     21623     21626     21634     21635
     21623     21626     21634     21636     21623     21626     21634     21637
     21624     21623     21626     21627     21624     21623     21626     21628
     21624     21623     21626     21634     21625     21623     21626     21627
     21625     21623     21626     21628     21625     21623     21626     21634
     21626     21628     21629     21630     21626     21628     21629     21631
     21626     21634     21637     21638     21627     21626     21628     21629
     21627     21626     21634     21635     21627     21626     21634     21636
     21627     21626     21634     21637     21628     21626     21634     21635
     21628     21626     21634     21636     21628     21626     21634     21637
     21628     21629     21631     21632     21628     21629     21631     21633
     21628     21629     21631     21643     21629     21628     21626     21634
     21629     21631     21643     21644     21629     21631     21643     21645
     21629     21631     21643     21646     21630     21629     21631     21632
     21630     21629     21631     21633     21630     21629     21631     21643
     21631     21643     21646     21647     21631     21643     21646     21648
     21631     21643     21646     21649     21632     21631     21643     21644
     21632     21631     21643     21645     21632     21631     21643     21646
     21633     21631     21643     21644     21633     21631     21643     21645
     21633     21631     21643     21646     21634     21637     21638     21639
     21634     21637     21638     21640     21635     21634     21637     21638
     21636     21634     21637     21638     21637     21638     21640     21641
     21637     21638     21640     21642     21637     21638     21640     21687
     21638     21640     21687     21688     21638     21640     21687     21689
     21638     21640     21687     21690     21639     21638     21640     21641
     21639     21638     21640     21642     21639     21638     21640     21687
     21640     21687     21690     21691     21640     21687     21690     21692
     21640     21687     21690     21693     21641     21640     21687     21688
     21641     21640     21687     21689     21641     21640     21687     21690
     21642     21640     21687     21688     21642     21640     21687     21689
     21642     21640     21687     21690     21643     21646     21649     21650
     21643     21646     21649     21651     21643     21646     21649     21652
     21644     21643     21646     21647     21644     21643     21646     21648
     21644     21643     21646     21649     21645     21643     21646     21647
     21645     21643     21646     21648     21645     21643     21646     21649
     21646     21649     21652     21653     21646     21649     21652     21654
     21646     21649     21652     21655     21647     21646     21649     21650
     21647     21646     21649     21651     21647     21646     21649     21652
     21648     21646     21649     21650     21648     21646     21649     21651
     21648     21646     21649     21652     21649     21652     21655     21656
     21649     21652     21655     21657     21649     21652     21655     21658
     21650     21649     21652     21653     21650     21649     21652     21654
     21650     21649     21652     21655     21651     21649     21652     21653
     21651     21649     21652     21654     21651     21649     21652     21655
     21652     21655     21658     21659     21652     21655     21658     21660
     21652     21655     21658     21661     21653     21652     21655     21656
     21653     21652     21655     21657     21653     21652     21655     21658
     21654     21652     21655     21656     21654     21652     21655     21657
     21654     21652     21655     21658     21655     21658     21661     21662
     21655     21658     21661     21663     21655     21658     21661     21666
     21656     21655     21658     21659     21656     21655     21658     21660
     21656     21655     21658     21661     21657     21655     21658     21659
     21657     21655     21658     21660     21657     21655     21658     21661
     21658     21661     21663     21664     21658     21661     21663     21665
     21658     21661     21663     21666     21658     21661     21666     21663
     21658     21661     21666     21667     21658     21661     21666     21668
     21659     21658     21661     21662     21659     21658     21661     21663
     21659     21658     21661     21666     21660     21658     21661     21662
     21660     21658     21661     21663     21660     21658     21661     21666
     21661     21663     21666     21667     21661     21663     21666     21668
     21661     21666     21663     21664     21661     21666     21663     21665
     21661     21666     21668     21669     21661     21666     21668     21670
     21661     21666     21668     21671     21662     21661     21663     21664
     21662     21661     21663     21665     21662     21661     21663     21666
     21662     21661     21666     21663     21662     21661     21666     21667
     21662     21661     21666     21668     21663     21661     21666     21667
     21663     21661     21666     21668     21663     21666     21668     21669
     21663     21666     21668     21670     21663     21666     21668     21671
     21664     21663     21661     21666     21664     21663     21666     21667
     21664     21663     21666     21668     21665     21663     21661     21666
     21665     21663     21666     21667     21665     21663     21666     21668
     21666     21668     21671     21672     21666     21668     21671     21673
     21666     21668     21671     21674     21667     21666     21668     21669
     21667     21666     21668     21670     21667     21666     21668     21671
     21668     21671     21674     21675     21668     21671     21674     21676
     21668     21671     21674     21677     21669     21668     21671     21672
     21669     21668     21671     21673     21669     21668     21671     21674
     21670     21668     21671     21672     21670     21668     21671     21673
     21670     21668     21671     21674     21671     21674     21677     21678
     21671     21674     21677     21679     21671     21674     21677     21680
     21672     21671     21674     21675     21672     21671     21674     21676
     21672     21671     21674     21677     21673     21671     21674     21675
     21673     21671     21674     21676     21673     21671     21674     21677
     21674     21677     21680     21681     21674     21677     21680     21682
     21674     21677     21680     21683     21675     21674     21677     21678
     21675     21674     21677     21679     21675     21674     21677     21680
     21676     21674     21677     21678     21676     21674     21677     21679
     21676     21674     21677     21680     21677     21680     21683     21684
     21677     21680     21683     21685     21677     21680     21683     21686
     21678     21677     21680     21681     21678     21677     21680     21682
     21678     21677     21680     21683     21679     21677     21680     21681
     21679     21677     21680     21682     21679     21677     21680     21683
     21681     21680     21683     21684     21681     21680     21683     21685
     21681     21680     21683     21686     21682     21680     21683     21684
     21682     21680     21683     21685     21682     21680     21683     21686
     21687     21690     21693     21694     21687     21690     21693     21695
     21687     21690     21693     21696     21688     21687     21690     21691
     21688     21687     21690     21692     21688     21687     21690     21693
     21689     21687     21690     21691     21689     21687     21690     21692
     21689     21687     21690     21693     21690     21693     21696     21697
     21690     21693     21696     21698     21690     21693     21696     21699
     21691     21690     21693     21694     21691     21690     21693     21695
     21691     21690     21693     21696     21692     21690     21693     21694
     21692     21690     21693     21695     21692     21690     21693     21696
     21693     21696     21699     21700     21693     21696     21699     21701
     21693     21696     21699     21702     21694     21693     21696     21697
     21694     21693     21696     21698     21694     21693     21696     21699
     21695     21693     21696     21697     21695     21693     21696     21698
     21695     21693     21696     21699     21696     21699     21702     21703
     21696     21699     21702     21704     21696     21699     21702     21705
     21697     21696     21699     21700     21697     21696     21699     21701
     21697     21696     21699     21702     21698     21696     21699     21700
     21698     21696     21699     21701     21698     21696     21699     21702
     21699     21702     21705     21706     21699     21702     21705     21707
     21699     21702     21705     21708     21700     21699     21702     21703
     21700     21699     21702     21704     21700     21699     21702     21705
     21701     21699     21702     21703     21701     21699     21702     21704
     21701     21699     21702     21705     21702     21705     21708     21709
     21702     21705     21708     21710     21702     21705     21708     21711
     21703     21702     21705     21706     21703     21702     21705     21707
     21703     21702     21705     21708     21704     21702     21705     21706
     21704     21702     21705     21707     21704     21702     21705     21708
     21705     21708     21711     21712     21705     21708     21711     21713
     21705     21708     21711     21714     21706     21705     21708     21709
     21706     21705     21708     21710     21706     21705     21708     21711
     21707     21705     21708     21709     21707     21705     21708     21710
     21707     21705     21708     21711     21708     21711     21714     21715
     21708     21711     21714     21716     21708     21711     21714     21717
     21709     21708     21711     21712     21709     21708     21711     21713
     21709     21708     21711     21714     21710     21708     21711     21712
     21710     21708     21711     21713     21710     21708     21711     21714
     21711     21714     21717     21718     21711     21714     21717     21719
     21711     21714     21717     21720     21712     21711     21714     21715
     21712     21711     21714     21716     21712     21711     21714     21717
     21713     21711     21714     21715     21713     21711     21714     21716
     21713     21711     21714     21717     21714     21717     21720     21721
     21714     21717     21720     21722     21714     21717     21720     21723
     21715     21714     21717     21718     21715     21714     21717     21719
     21715     21714     21717     21720     21716     21714     21717     21718
     21716     21714     21717     21719     21716     21714     21717     21720
     21717     21720     21723     21724     21717     21720     21723     21725
     21717     21720     21723     21726     21718     21717     21720     21721
     21718     21717     21720     21722     21718     21717     21720     21723
     21719     21717     21720     21721     21719     21717     21720     21722
     21719     21717     21720     21723     21720     21723     21726     21727
     21720     21723     21726     21728     21720     21723     21726     21729
     21721     21720     21723     21724     21721     21720     21723     21725
     21721     21720     21723     21726     21722     21720     21723     21724
     21722     21720     21723     21725     21722     21720     21723     21726
     21724     21723     21726     21727     21724     21723     21726     21728
     21724     21723     21726     21729     21725     21723     21726     21727
     21725     21723     21726     21728     21725     21723     21726     21729
     21730     21734     21737     21738     21730     21734     21737     21739
     21730     21734     21737     21744     21731     21730     21734     21735
     21731     21730     21734     21736     21731     21730     21734     21737
     21732     21730     21734     21735     21732     21730     21734     21736
     21732     21730     21734     21737     21733     21730     21734     21735
     21733     21730     21734     21736     21733     21730     21734     21737
     21734     21737     21744     21740     21735     21734     21737     21738
     21735     21734     21737     21739     21735     21734     21737     21744
     21736     21734     21737     21738     21736     21734     21737     21739
     21736     21734     21737     21744     21737     21744     21740     21741
     21737     21744     21740     21742     21737     21744     21740     21743
     21738     21737     21744     21740     21739     21737     21744     21740
     21740     21743     21745     21746     21740     21743     21745     21747
     21740     21743     21745     21748     21741     21740     21743     21745
     21742     21740     21743     21745     21743     21745     21748     21749
     21743     21745     21748     21750     21743     21745     21748     21756
     21744     21740     21743     21745     21745     21748     21750     21751
     21745     21748     21756     21757     21745     21748     21756     21758
     21745     21748     21756     21759     21746     21745     21748     21749
     21746     21745     21748     21750     21746     21745     21748     21756
     21747     21745     21748     21749     21747     21745     21748     21750
     21747     21745     21748     21756     21748     21750     21751     21752
     21748     21750     21751     21753     21748     21756     21759     21760
     21749     21748     21750     21751     21749     21748     21756     21757
     21749     21748     21756     21758     21749     21748     21756     21759
     21750     21748     21756     21757     21750     21748     21756     21758
     21750     21748     21756     21759     21750     21751     21753     21754
     21750     21751     21753     21755     21750     21751     21753     21765
     21751     21750     21748     21756     21751     21753     21765     21766
     21751     21753     21765     21767     21751     21753     21765     21768
     21752     21751     21753     21754     21752     21751     21753     21755
     21752     21751     21753     21765     21753     21765     21768     21769
     21753     21765     21768     21770     21753     21765     21768     21771
     21754     21753     21765     21766     21754     21753     21765     21767
     21754     21753     21765     21768     21755     21753     21765     21766
     21755     21753     21765     21767     21755     21753     21765     21768
     21756     21759     21760     21761     21756     21759     21760     21762
     21757     21756     21759     21760     21758     21756     21759     21760
     21759     21760     21762     21763     21759     21760     21762     21764
     21759     21760     21762     21809     21760     21762     21809     21810
     21760     21762     21809     21811     21760     21762     21809     21812
     21761     21760     21762     21763     21761     21760     21762     21764
     21761     21760     21762     21809     21762     21809     21812     21813
     21762     21809     21812     21814     21762     21809     21812     21815
     21763     21762     21809     21810     21763     21762     21809     21811
     21763     21762     21809     21812     21764     21762     21809     21810
     21764     21762     21809     21811     21764     21762     21809     21812
     21765     21768     21771     21772     21765     21768     21771     21773
     21765     21768     21771     21774     21766     21765     21768     21769
     21766     21765     21768     21770     21766     21765     21768     21771
     21767     21765     21768     21769     21767     21765     21768     21770
     21767     21765     21768     21771     21768     21771     21774     21775
     21768     21771     21774     21776     21768     21771     21774     21777
     21769     21768     21771     21772     21769     21768     21771     21773
     21769     21768     21771     21774     21770     21768     21771     21772
     21770     21768     21771     21773     21770     21768     21771     21774
     21771     21774     21777     21778     21771     21774     21777     21779
     21771     21774     21777     21780     21772     21771     21774     21775
     21772     21771     21774     21776     21772     21771     21774     21777
     21773     21771     21774     21775     21773     21771     21774     21776
     21773     21771     21774     21777     21774     21777     21780     21781
     21774     21777     21780     21782     21774     21777     21780     21783
     21775     21774     21777     21778     21775     21774     21777     21779
     21775     21774     21777     21780     21776     21774     21777     21778
     21776     21774     21777     21779     21776     21774     21777     21780
     21777     21780     21783     21784     21777     21780     21783     21785
     21777     21780     21783     21788     21778     21777     21780     21781
     21778     21777     21780     21782     21778     21777     21780     21783
     21779     21777     21780     21781     21779     21777     21780     21782
     21779     21777     21780     21783     21780     21783     21785     21786
     21780     21783     21785     21787     21780     21783     21785     21788
     21780     21783     21788     21785     21780     21783     21788     21789
     21780     21783     21788     21790     21781     21780     21783     21784
     21781     21780     21783     21785     21781     21780     21783     21788
     21782     21780     21783     21784     21782     21780     21783     21785
     21782     21780     21783     21788     21783     21785     21788     21789
     21783     21785     21788     21790     21783     21788     21785     21786
     21783     21788     21785     21787     21783     21788     21790     21791
     21783     21788     21790     21792     21783     21788     21790     21793
     21784     21783     21785     21786     21784     21783     21785     21787
     21784     21783     21785     21788     21784     21783     21788     21785
     21784     21783     21788     21789     21784     21783     21788     21790
     21785     21783     21788     21789     21785     21783     21788     21790
     21785     21788     21790     21791     21785     21788     21790     21792
     21785     21788     21790     21793     21786     21785     21783     21788
     21786     21785     21788     21789     21786     21785     21788     21790
     21787     21785     21783     21788     21787     21785     21788     21789
     21787     21785     21788     21790     21788     21790     21793     21794
     21788     21790     21793     21795     21788     21790     21793     21796
     21789     21788     21790     21791     21789     21788     21790     21792
     21789     21788     21790     21793     21790     21793     21796     21797
     21790     21793     21796     21798     21790     21793     21796     21799
     21791     21790     21793     21794     21791     21790     21793     21795
     21791     21790     21793     21796     21792     21790     21793     21794
     21792     21790     21793     21795     21792     21790     21793     21796
     21793     21796     21799     21800     21793     21796     21799     21801
     21793     21796     21799     21802     21794     21793     21796     21797
     21794     21793     21796     21798     21794     21793     21796     21799
     21795     21793     21796     21797     21795     21793     21796     21798
     21795     21793     21796     21799     21796     21799     21802     21803
     21796     21799     21802     21804     21796     21799     21802     21805
     21797     21796     21799     21800     21797     21796     21799     21801
     21797     21796     21799     21802     21798     21796     21799     21800
     21798     21796     21799     21801     21798     21796     21799     21802
     21799     21802     21805     21806     21799     21802     21805     21807
     21799     21802     21805     21808     21800     21799     21802     21803
     21800     21799     21802     21804     21800     21799     21802     21805
     21801     21799     21802     21803     21801     21799     21802     21804
     21801     21799     21802     21805     21803     21802     21805     21806
     21803     21802     21805     21807     21803     21802     21805     21808
     21804     21802     21805     21806     21804     21802     21805     21807
     21804     21802     21805     21808     21809     21812     21815     21816
     21809     21812     21815     21817     21809     21812     21815     21818
     21810     21809     21812     21813     21810     21809     21812     21814
     21810     21809     21812     21815     21811     21809     21812     21813
     21811     21809     21812     21814     21811     21809     21812     21815
     21812     21815     21818     21819     21812     21815     21818     21820
     21812     21815     21818     21821     21813     21812     21815     21816
     21813     21812     21815     21817     21813     21812     21815     21818
     21814     21812     21815     21816     21814     21812     21815     21817
     21814     21812     21815     21818     21815     21818     21821     21822
     21815     21818     21821     21823     21815     21818     21821     21824
     21816     21815     21818     21819     21816     21815     21818     21820
     21816     21815     21818     21821     21817     21815     21818     21819
     21817     21815     21818     21820     21817     21815     21818     21821
     21818     21821     21824     21825     21818     21821     21824     21826
     21818     21821     21824     21827     21819     21818     21821     21822
     21819     21818     21821     21823     21819     21818     21821     21824
     21820     21818     21821     21822     21820     21818     21821     21823
     21820     21818     21821     21824     21821     21824     21827     21828
     21821     21824     21827     21829     21821     21824     21827     21830
     21822     21821     21824     21825     21822     21821     21824     21826
     21822     21821     21824     21827     21823     21821     21824     21825
     21823     21821     21824     21826     21823     21821     21824     21827
     21824     21827     21830     21831     21824     21827     21830     21832
     21824     21827     21830     21833     21825     21824     21827     21828
     21825     21824     21827     21829     21825     21824     21827     21830
     21826     21824     21827     21828     21826     21824     21827     21829
     21826     21824     21827     21830     21827     21830     21833     21834
     21827     21830     21833     21835     21827     21830     21833     21836
     21828     21827     21830     21831     21828     21827     21830     21832
     21828     21827     21830     21833     21829     21827     21830     21831
     21829     21827     21830     21832     21829     21827     21830     21833
     21830     21833     21836     21837     21830     21833     21836     21838
     21830     21833     21836     21839     21831     21830     21833     21834
     21831     21830     21833     21835     21831     21830     21833     21836
     21832     21830     21833     21834     21832     21830     21833     21835
     21832     21830     21833     21836     21833     21836     21839     21840
     21833     21836     21839     21841     21833     21836     21839     21842
     21834     21833     21836     21837     21834     21833     21836     21838
     21834     21833     21836     21839     21835     21833     21836     21837
     21835     21833     21836     21838     21835     21833     21836     21839
     21836     21839     21842     21843     21836     21839     21842     21844
     21836     21839     21842     21845     21837     21836     21839     21840
     21837     21836     21839     21841     21837     21836     21839     21842
     21838     21836     21839     21840     21838     21836     21839     21841
     21838     21836     21839     21842     21839     21842     21845     21846
     21839     21842     21845     21847     21839     21842     21845     21848
     21840     21839     21842     21843     21840     21839     21842     21844
     21840     21839     21842     21845     21841     21839     21842     21843
     21841     21839     21842     21844     21841     21839     21842     21845
     21842     21845     21848     21849     21842     21845     21848     21850
     21842     21845     21848     21851     21843     21842     21845     21846
     21843     21842     21845     21847     21843     21842     21845     21848
     21844     21842     21845     21846     21844     21842     21845     21847
     21844     21842     21845     21848     21846     21845     21848     21849
     21846     21845     21848     21850     21846     21845     21848     21851
     21847     21845     21848     21849     21847     21845     21848     21850
     21847     21845     21848     21851     21852     21856     21859     21860
     21852     21856     21859     21861     21852     21856     21859     21866
     21853     21852     21856     21857     21853     21852     21856     21858
     21853     21852     21856     21859     21854     21852     21856     21857
     21854     21852     21856     21858     21854     21852     21856     21859
     21855     21852     21856     21857     21855     21852     21856     21858
     21855     21852     21856     21859     21856     21859     21866     21862
     21857     21856     21859     21860     21857     21856     21859     21861
     21857     21856     21859     21866     21858     21856     21859     21860
     21858     21856     21859     21861     21858     21856     21859     21866
     21859     21866     21862     21863     21859     21866     21862     21864
     21859     21866     21862     21865     21860     21859     21866     21862
     21861     21859     21866     21862     21862     21865     21867     21868
     21862     21865     21867     21869     21862     21865     21867     21870
     21863     21862     21865     21867     21864     21862     21865     21867
     21865     21867     21870     21871     21865     21867     21870     21872
     21865     21867     21870     21878     21866     21862     21865     21867
     21867     21870     21872     21873     21867     21870     21878     21879
     21867     21870     21878     21880     21867     21870     21878     21881
     21868     21867     21870     21871     21868     21867     21870     21872
     21868     21867     21870     21878     21869     21867     21870     21871
     21869     21867     21870     21872     21869     21867     21870     21878
     21870     21872     21873     21874     21870     21872     21873     21875
     21870     21878     21881     21882     21871     21870     21872     21873
     21871     21870     21878     21879     21871     21870     21878     21880
     21871     21870     21878     21881     21872     21870     21878     21879
     21872     21870     21878     21880     21872     21870     21878     21881
     21872     21873     21875     21876     21872     21873     21875     21877
     21872     21873     21875     21887     21873     21872     21870     21878
     21873     21875     21887     21888     21873     21875     21887     21889
     21873     21875     21887     21890     21874     21873     21875     21876
     21874     21873     21875     21877     21874     21873     21875     21887
     21875     21887     21890     21891     21875     21887     21890     21892
     21875     21887     21890     21893     21876     21875     21887     21888
     21876     21875     21887     21889     21876     21875     21887     21890
     21877     21875     21887     21888     21877     21875     21887     21889
     21877     21875     21887     21890     21878     21881     21882     21883
     21878     21881     21882     21884     21879     21878     21881     21882
     21880     21878     21881     21882     21881     21882     21884     21885
     21881     21882     21884     21886     21881     21882     21884     21934
     21882     21884     21934     21935     21882     21884     21934     21936
     21882     21884     21934     21937     21883     21882     21884     21885
     21883     21882     21884     21886     21883     21882     21884     21934
     21884     21934     21937     21938     21884     21934     21937     21939
     21884     21934     21937     21940     21885     21884     21934     21935
     21885     21884     21934     21936     21885     21884     21934     21937
     21886     21884     21934     21935     21886     21884     21934     21936
     21886     21884     21934     21937     21887     21890     21893     21894
     21887     21890     21893     21895     21887     21890     21893     21896
     21888     21887     21890     21891     21888     21887     21890     21892
     21888     21887     21890     21893     21889     21887     21890     21891
     21889     21887     21890     21892     21889     21887     21890     21893
     21890     21893     21896     21897     21890     21893     21896     21898
     21890     21893     21896     21899     21891     21890     21893     21894
     21891     21890     21893     21895     21891     21890     21893     21896
     21892     21890     21893     21894     21892     21890     21893     21895
     21892     21890     21893     21896     21893     21896     21899     21900
     21893     21896     21899     21901     21893     21896     21899     21902
     21894     21893     21896     21897     21894     21893     21896     21898
     21894     21893     21896     21899     21895     21893     21896     21897
     21895     21893     21896     21898     21895     21893     21896     21899
     21896     21899     21902     21903     21896     21899     21902     21904
     21896     21899     21902     21905     21897     21896     21899     21900
     21897     21896     21899     21901     21897     21896     21899     21902
     21898     21896     21899     21900     21898     21896     21899     21901
     21898     21896     21899     21902     21899     21902     21905     21906
     21899     21902     21905     21907     21900     21899     21902     21903
     21900     21899     21902     21904     21900     21899     21902     21905
     21901     21899     21902     21903     21901     21899     21902     21904
     21901     21899     21902     21905     21902     21905     21907     21908
     21902     21905     21907     21909     21903     21902     21905     21906
     21903     21902     21905     21907     21904     21902     21905     21906
     21904     21902     21905     21907     21905     21907     21909     21910
     21905     21907     21909     21911     21905     21907     21909     21912
     21906     21905     21907     21908     21906     21905     21907     21909
     21907     21909     21912     21913     21907     21909     21912     21914
     21907     21909     21912     21915     21908     21907     21909     21910
     21908     21907     21909     21911     21908     21907     21909     21912
     21909     21912     21915     21916     21909     21912     21915     21917
     21909     21912     21915     21918     21910     21909     21912     21913
     21910     21909     21912     21914     21910     21909     21912     21915
     21911     21909     21912     21913     21911     21909     21912     21914
     21911     21909     21912     21915     21912     21915     21918     21919
     21912     21915     21918     21920     21912     21915     21918     21921
     21913     21912     21915     21916     21913     21912     21915     21917
     21913     21912     21915     21918     21914     21912     21915     21916
     21914     21912     21915     21917     21914     21912     21915     21918
     21915     21918     21921     21922     21915     21918     21921     21923
     21915     21918     21921     21924     21916     21915     21918     21919
     21916     21915     21918     21920     21916     21915     21918     21921
     21917     21915     21918     21919     21917     21915     21918     21920
     21917     21915     21918     21921     21918     21921     21924     21925
     21918     21921     21924     21926     21918     21921     21924     21927
     21919     21918     21921     21922     21919     21918     21921     21923
     21919     21918     21921     21924     21920     21918     21921     21922
     21920     21918     21921     21923     21920     21918     21921     21924
     21921     21924     21927     21928     21921     21924     21927     21929
     21921     21924     21927     21930     21922     21921     21924     21925
     21922     21921     21924     21926     21922     21921     21924     21927
     21923     21921     21924     21925     21923     21921     21924     21926
     21923     21921     21924     21927     21924     21927     21930     21931
     21924     21927     21930     21932     21924     21927     21930     21933
     21925     21924     21927     21928     21925     21924     21927     21929
     21925     21924     21927     21930     21926     21924     21927     21928
     21926     21924     21927     21929     21926     21924     21927     21930
     21928     21927     21930     21931     21928     21927     21930     21932
     21928     21927     21930     21933     21929     21927     21930     21931
     21929     21927     21930     21932     21929     21927     21930     21933
     21934     21937     21940     21941     21934     21937     21940     21942
     21934     21937     21940     21943     21935     21934     21937     21938
     21935     21934     21937     21939     21935     21934     21937     21940
     21936     21934     21937     21938     21936     21934     21937     21939
     21936     21934     21937     21940     21937     21940     21943     21944
     21937     21940     21943     21945     21937     21940     21943     21946
     21938     21937     21940     21941     21938     21937     21940     21942
     21938     21937     21940     21943     21939     21937     21940     21941
     21939     21937     21940     21942     21939     21937     21940     21943
     21940     21943     21946     21947     21940     21943     21946     21948
     21940     21943     21946     21949     21941     21940     21943     21944
     21941     21940     21943     21945     21941     21940     21943     21946
     21942     21940     21943     21944     21942     21940     21943     21945
     21942     21940     21943     21946     21943     21946     21949     21950
     21943     21946     21949     21951     21943     21946     21949     21952
     21944     21943     21946     21947     21944     21943     21946     21948
     21944     21943     21946     21949     21945     21943     21946     21947
     21945     21943     21946     21948     21945     21943     21946     21949
     21946     21949     21952     21953     21946     21949     21952     21954
     21946     21949     21952     21955     21947     21946     21949     21950
     21947     21946     21949     21951     21947     21946     21949     21952
     21948     21946     21949     21950     21948     21946     21949     21951
     21948     21946     21949     21952     21949     21952     21955     21956
     21949     21952     21955     21957     21949     21952     21955     21958
     21950     21949     21952     21953     21950     21949     21952     21954
     21950     21949     21952     21955     21951     21949     21952     21953
     21951     21949     21952     21954     21951     21949     21952     21955
     21952     21955     21958     21959     21952     21955     21958     21960
     21952     21955     21958     21961     21953     21952     21955     21956
     21953     21952     21955     21957     21953     21952     21955     21958
     21954     21952     21955     21956     21954     21952     21955     21957
     21954     21952     21955     21958     21955     21958     21961     21962
     21955     21958     21961     21963     21955     21958     21961     21964
     21956     21955     21958     21959     21956     21955     21958     21960
     21956     21955     21958     21961     21957     21955     21958     21959
     21957     21955     21958     21960     21957     21955     21958     21961
     21958     21961     21964     21965     21958     21961     21964     21966
     21958     21961     21964     21967     21959     21958     21961     21962
     21959     21958     21961     21963     21959     21958     21961     21964
     21960     21958     21961     21962     21960     21958     21961     21963
     21960     21958     21961     21964     21961     21964     21967     21968
     21961     21964     21967     21969     21961     21964     21967     21970
     21962     21961     21964     21965     21962     21961     21964     21966
     21962     21961     21964     21967     21963     21961     21964     21965
     21963     21961     21964     21966     21963     21961     21964     21967
     21964     21967     21970     21971     21964     21967     21970     21972
     21964     21967     21970     21973     21965     21964     21967     21968
     21965     21964     21967     21969     21965     21964     21967     21970
     21966     21964     21967     21968     21966     21964     21967     21969
     21966     21964     21967     21970     21967     21970     21973     21974
     21967     21970     21973     21975     21967     21970     21973     21976
     21968     21967     21970     21971     21968     21967     21970     21972
     21968     21967     21970     21973     21969     21967     21970     21971
     21969     21967     21970     21972     21969     21967     21970     21973
     21971     21970     21973     21974     21971     21970     21973     21975
     21971     21970     21973     21976     21972     21970     21973     21974
     21972     21970     21973     21975     21972     21970     21973     21976
     21977     21981     21984     21985     21977     21981     21984     21986
     21977     21981     21984     21991     21978     21977     21981     21982
     21978     21977     21981     21983     21978     21977     21981     21984
     21979     21977     21981     21982     21979     21977     21981     21983
     21979     21977     21981     21984     21980     21977     21981     21982
     21980     21977     21981     21983     21980     21977     21981     21984
     21981     21984     21991     21987     21982     21981     21984     21985
     21982     21981     21984     21986     21982     21981     21984     21991
     21983     21981     21984     21985     21983     21981     21984     21986
     21983     21981     21984     21991     21984     21991     21987     21988
     21984     21991     21987     21989     21984     21991     21987     21990
     21985     21984     21991     21987     21986     21984     21991     21987
     21987     21990     21992     21993     21987     21990     21992     21994
     21987     21990     21992     21995     21988     21987     21990     21992
     21989     21987     21990     21992     21990     21992     21995     21996
     21990     21992     21995     21997     21990     21992     21995     22003
     21991     21987     21990     21992     21992     21995     21997     21998
     21992     21995     22003     22004     21992     21995     22003     22005
     21992     21995     22003     22006     21993     21992     21995     21996
     21993     21992     21995     21997     21993     21992     21995     22003
     21994     21992     21995     21996     21994     21992     21995     21997
     21994     21992     21995     22003     21995     21997     21998     21999
     21995     21997     21998     22000     21995     22003     22006     22007
     21996     21995     21997     21998     21996     21995     22003     22004
     21996     21995     22003     22005     21996     21995     22003     22006
     21997     21995     22003     22004     21997     21995     22003     22005
     21997     21995     22003     22006     21997     21998     22000     22001
     21997     21998     22000     22002     21997     21998     22000     22012
     21998     21997     21995     22003     21998     22000     22012     22013
     21998     22000     22012     22014     21998     22000     22012     22015
     21999     21998     22000     22001     21999     21998     22000     22002
     21999     21998     22000     22012     22000     22012     22015     22016
     22000     22012     22015     22017     22000     22012     22015     22018
     22001     22000     22012     22013     22001     22000     22012     22014
     22001     22000     22012     22015     22002     22000     22012     22013
     22002     22000     22012     22014     22002     22000     22012     22015
     22003     22006     22007     22008     22003     22006     22007     22009
     22004     22003     22006     22007     22005     22003     22006     22007
     22006     22007     22009     22010     22006     22007     22009     22011
     22006     22007     22009     22053     22007     22009     22053     22054
     22007     22009     22053     22055     22007     22009     22053     22056
     22008     22007     22009     22010     22008     22007     22009     22011
     22008     22007     22009     22053     22009     22053     22056     22057
     22009     22053     22056     22058     22009     22053     22056     22059
     22010     22009     22053     22054     22010     22009     22053     22055
     22010     22009     22053     22056     22011     22009     22053     22054
     22011     22009     22053     22055     22011     22009     22053     22056
     22012     22015     22018     22019     22012     22015     22018     22020
     22012     22015     22018     22021     22013     22012     22015     22016
     22013     22012     22015     22017     22013     22012     22015     22018
     22014     22012     22015     22016     22014     22012     22015     22017
     22014     22012     22015     22018     22015     22018     22021     22022
     22015     22018     22021     22023     22015     22018     22021     22024
     22016     22015     22018     22019     22016     22015     22018     22020
     22016     22015     22018     22021     22017     22015     22018     22019
     22017     22015     22018     22020     22017     22015     22018     22021
     22018     22021     22024     22025     22018     22021     22024     22026
     22018     22021     22024     22027     22019     22018     22021     22022
     22019     22018     22021     22023     22019     22018     22021     22024
     22020     22018     22021     22022     22020     22018     22021     22023
     22020     22018     22021     22024     22021     22024     22027     22028
     22021     22024     22027     22029     22021     22024     22027     22030
     22022     22021     22024     22025     22022     22021     22024     22026
     22022     22021     22024     22027     22023     22021     22024     22025
     22023     22021     22024     22026     22023     22021     22024     22027
     22024     22027     22030     22031     22024     22027     22030     22032
     22025     22024     22027     22028     22025     22024     22027     22029
     22025     22024     22027     22030     22026     22024     22027     22028
     22026     22024     22027     22029     22026     22024     22027     22030
     22027     22030     22032     22033     22027     22030     22032     22034
     22028     22027     22030     22031     22028     22027     22030     22032
     22029     22027     22030     22031     22029     22027     22030     22032
     22030     22032     22034     22035     22030     22032     22034     22036
     22030     22032     22034     22037     22031     22030     22032     22033
     22031     22030     22032     22034     22032     22034     22037     22038
     22032     22034     22037     22039     22032     22034     22037     22040
     22033     22032     22034     22035     22033     22032     22034     22036
     22033     22032     22034     22037     22034     22037     22040     22041
     22034     22037     22040     22042     22034     22037     22040     22043
     22035     22034     22037     22038     22035     22034     22037     22039
     22035     22034     22037     22040     22036     22034     22037     22038
     22036     22034     22037     22039     22036     22034     22037     22040
     22037     22040     22043     22044     22037     22040     22043     22045
     22037     22040     22043     22046     22038     22037     22040     22041
     22038     22037     22040     22042     22038     22037     22040     22043
     22039     22037     22040     22041     22039     22037     22040     22042
     22039     22037     22040     22043     22040     22043     22046     22047
     22040     22043     22046     22048     22040     22043     22046     22049
     22041     22040     22043     22044     22041     22040     22043     22045
     22041     22040     22043     22046     22042     22040     22043     22044
     22042     22040     22043     22045     22042     22040     22043     22046
     22043     22046     22049     22050     22043     22046     22049     22051
     22043     22046     22049     22052     22044     22043     22046     22047
     22044     22043     22046     22048     22044     22043     22046     22049
     22045     22043     22046     22047     22045     22043     22046     22048
     22045     22043     22046     22049     22047     22046     22049     22050
     22047     22046     22049     22051     22047     22046     22049     22052
     22048     22046     22049     22050     22048     22046     22049     22051
     22048     22046     22049     22052     22053     22056     22059     22060
     22053     22056     22059     22061     22053     22056     22059     22062
     22054     22053     22056     22057     22054     22053     22056     22058
     22054     22053     22056     22059     22055     22053     22056     22057
     22055     22053     22056     22058     22055     22053     22056     22059
     22056     22059     22062     22063     22056     22059     22062     22064
     22056     22059     22062     22065     22057     22056     22059     22060
     22057     22056     22059     22061     22057     22056     22059     22062
     22058     22056     22059     22060     22058     22056     22059     22061
     22058     22056     22059     22062     22059     22062     22065     22066
     22059     22062     22065     22067     22059     22062     22065     22068
     22060     22059     22062     22063     22060     22059     22062     22064
     22060     22059     22062     22065     22061     22059     22062     22063
     22061     22059     22062     22064     22061     22059     22062     22065
     22062     22065     22068     22069     22062     22065     22068     22070
     22062     22065     22068     22071     22063     22062     22065     22066
     22063     22062     22065     22067     22063     22062     22065     22068
     22064     22062     22065     22066     22064     22062     22065     22067
     22064     22062     22065     22068     22065     22068     22071     22072
     22065     22068     22071     22073     22066     22065     22068     22069
     22066     22065     22068     22070     22066     22065     22068     22071
     22067     22065     22068     22069     22067     22065     22068     22070
     22067     22065     22068     22071     22068     22071     22073     22074
     22068     22071     22073     22075     22069     22068     22071     22072
     22069     22068     22071     22073     22070     22068     22071     22072
     22070     22068     22071     22073     22071     22073     22075     22076
     22071     22073     22075     22077     22071     22073     22075     22078
     22072     22071     22073     22074     22072     22071     22073     22075
     22073     22075     22078     22079     22073     22075     22078     22080
     22073     22075     22078     22081     22074     22073     22075     22076
     22074     22073     22075     22077     22074     22073     22075     22078
     22075     22078     22081     22082     22075     22078     22081     22083
     22075     22078     22081     22084     22076     22075     22078     22079
     22076     22075     22078     22080     22076     22075     22078     22081
     22077     22075     22078     22079     22077     22075     22078     22080
     22077     22075     22078     22081     22078     22081     22084     22085
     22078     22081     22084     22086     22078     22081     22084     22087
     22079     22078     22081     22082     22079     22078     22081     22083
     22079     22078     22081     22084     22080     22078     22081     22082
     22080     22078     22081     22083     22080     22078     22081     22084
     22081     22084     22087     22088     22081     22084     22087     22089
     22081     22084     22087     22090     22082     22081     22084     22085
     22082     22081     22084     22086     22082     22081     22084     22087
     22083     22081     22084     22085     22083     22081     22084     22086
     22083     22081     22084     22087     22084     22087     22090     22091
     22084     22087     22090     22092     22084     22087     22090     22093
     22085     22084     22087     22088     22085     22084     22087     22089
     22085     22084     22087     22090     22086     22084     22087     22088
     22086     22084     22087     22089     22086     22084     22087     22090
     22087     22090     22093     22094     22087     22090     22093     22095
     22087     22090     22093     22096     22088     22087     22090     22091
     22088     22087     22090     22092     22088     22087     22090     22093
     22089     22087     22090     22091     22089     22087     22090     22092
     22089     22087     22090     22093     22090     22093     22096     22097
     22090     22093     22096     22098     22090     22093     22096     22099
     22091     22090     22093     22094     22091     22090     22093     22095
     22091     22090     22093     22096     22092     22090     22093     22094
     22092     22090     22093     22095     22092     22090     22093     22096
     22094     22093     22096     22097     22094     22093     22096     22098
     22094     22093     22096     22099     22095     22093     22096     22097
     22095     22093     22096     22098     22095     22093     22096     22099
     22100     22104     22107     22108     22100     22104     22107     22109
     22100     22104     22107     22114     22101     22100     22104     22105
     22101     22100     22104     22106     22101     22100     22104     22107
     22102     22100     22104     22105     22102     22100     22104     22106
     22102     22100     22104     22107     22103     22100     22104     22105
     22103     22100     22104     22106     22103     22100     22104     22107
     22104     22107     22114     22110     22105     22104     22107     22108
     22105     22104     22107     22109     22105     22104     22107     22114
     22106     22104     22107     22108     22106     22104     22107     22109
     22106     22104     22107     22114     22107     22114     22110     22111
     22107     22114     22110     22112     22107     22114     22110     22113
     22108     22107     22114     22110     22109     22107     22114     22110
     22110     22113     22115     22116     22110     22113     22115     22117
     22110     22113     22115     22118     22111     22110     22113     22115
     22112     22110     22113     22115     22113     22115     22118     22119
     22113     22115     22118     22120     22113     22115     22118     22126
     22114     22110     22113     22115     22115     22118     22120     22121
     22115     22118     22126     22127     22115     22118     22126     22128
     22115     22118     22126     22129     22116     22115     22118     22119
     22116     22115     22118     22120     22116     22115     22118     22126
     22117     22115     22118     22119     22117     22115     22118     22120
     22117     22115     22118     22126     22118     22120     22121     22122
     22118     22120     22121     22123     22118     22126     22129     22130
     22119     22118     22120     22121     22119     22118     22126     22127
     22119     22118     22126     22128     22119     22118     22126     22129
     22120     22118     22126     22127     22120     22118     22126     22128
     22120     22118     22126     22129     22120     22121     22123     22124
     22120     22121     22123     22125     22120     22121     22123     22135
     22121     22120     22118     22126     22121     22123     22135     22136
     22121     22123     22135     22137     22121     22123     22135     22138
     22122     22121     22123     22124     22122     22121     22123     22125
     22122     22121     22123     22135     22123     22135     22138     22139
     22123     22135     22138     22140     22123     22135     22138     22141
     22124     22123     22135     22136     22124     22123     22135     22137
     22124     22123     22135     22138     22125     22123     22135     22136
     22125     22123     22135     22137     22125     22123     22135     22138
     22126     22129     22130     22131     22126     22129     22130     22132
     22127     22126     22129     22130     22128     22126     22129     22130
     22129     22130     22132     22133     22129     22130     22132     22134
     22129     22130     22132     22179     22130     22132     22179     22180
     22130     22132     22179     22181     22130     22132     22179     22182
     22131     22130     22132     22133     22131     22130     22132     22134
     22131     22130     22132     22179     22132     22179     22182     22183
     22132     22179     22182     22184     22132     22179     22182     22185
     22133     22132     22179     22180     22133     22132     22179     22181
     22133     22132     22179     22182     22134     22132     22179     22180
     22134     22132     22179     22181     22134     22132     22179     22182
     22135     22138     22141     22142     22135     22138     22141     22143
     22135     22138     22141     22144     22136     22135     22138     22139
     22136     22135     22138     22140     22136     22135     22138     22141
     22137     22135     22138     22139     22137     22135     22138     22140
     22137     22135     22138     22141     22138     22141     22144     22145
     22138     22141     22144     22146     22138     22141     22144     22147
     22139     22138     22141     22142     22139     22138     22141     22143
     22139     22138     22141     22144     22140     22138     22141     22142
     22140     22138     22141     22143     22140     22138     22141     22144
     22141     22144     22147     22148     22141     22144     22147     22149
     22141     22144     22147     22150     22142     22141     22144     22145
     22142     22141     22144     22146     22142     22141     22144     22147
     22143     22141     22144     22145     22143     22141     22144     22146
     22143     22141     22144     22147     22144     22147     22150     22151
     22144     22147     22150     22152     22144     22147     22150     22153
     22145     22144     22147     22148     22145     22144     22147     22149
     22145     22144     22147     22150     22146     22144     22147     22148
     22146     22144     22147     22149     22146     22144     22147     22150
     22147     22150     22153     22154     22147     22150     22153     22155
     22147     22150     22153     22158     22148     22147     22150     22151
     22148     22147     22150     22152     22148     22147     22150     22153
     22149     22147     22150     22151     22149     22147     22150     22152
     22149     22147     22150     22153     22150     22153     22155     22156
     22150     22153     22155     22157     22150     22153     22155     22158
     22150     22153     22158     22155     22150     22153     22158     22159
     22150     22153     22158     22160     22151     22150     22153     22154
     22151     22150     22153     22155     22151     22150     22153     22158
     22152     22150     22153     22154     22152     22150     22153     22155
     22152     22150     22153     22158     22153     22155     22158     22159
     22153     22155     22158     22160     22153     22158     22155     22156
     22153     22158     22155     22157     22153     22158     22160     22161
     22153     22158     22160     22162     22153     22158     22160     22163
     22154     22153     22155     22156     22154     22153     22155     22157
     22154     22153     22155     22158     22154     22153     22158     22155
     22154     22153     22158     22159     22154     22153     22158     22160
     22155     22153     22158     22159     22155     22153     22158     22160
     22155     22158     22160     22161     22155     22158     22160     22162
     22155     22158     22160     22163     22156     22155     22153     22158
     22156     22155     22158     22159     22156     22155     22158     22160
     22157     22155     22153     22158     22157     22155     22158     22159
     22157     22155     22158     22160     22158     22160     22163     22164
     22158     22160     22163     22165     22158     22160     22163     22166
     22159     22158     22160     22161     22159     22158     22160     22162
     22159     22158     22160     22163     22160     22163     22166     22167
     22160     22163     22166     22168     22160     22163     22166     22169
     22161     22160     22163     22164     22161     22160     22163     22165
     22161     22160     22163     22166     22162     22160     22163     22164
     22162     22160     22163     22165     22162     22160     22163     22166
     22163     22166     22169     22170     22163     22166     22169     22171
     22163     22166     22169     22172     22164     22163     22166     22167
     22164     22163     22166     22168     22164     22163     22166     22169
     22165     22163     22166     22167     22165     22163     22166     22168
     22165     22163     22166     22169     22166     22169     22172     22173
     22166     22169     22172     22174     22166     22169     22172     22175
     22167     22166     22169     22170     22167     22166     22169     22171
     22167     22166     22169     22172     22168     22166     22169     22170
     22168     22166     22169     22171     22168     22166     22169     22172
     22169     22172     22175     22176     22169     22172     22175     22177
     22169     22172     22175     22178     22170     22169     22172     22173
     22170     22169     22172     22174     22170     22169     22172     22175
     22171     22169     22172     22173     22171     22169     22172     22174
     22171     22169     22172     22175     22173     22172     22175     22176
     22173     22172     22175     22177     22173     22172     22175     22178
     22174     22172     22175     22176     22174     22172     22175     22177
     22174     22172     22175     22178     22179     22182     22185     22186
     22179     22182     22185     22187     22179     22182     22185     22188
     22180     22179     22182     22183     22180     22179     22182     22184
     22180     22179     22182     22185     22181     22179     22182     22183
     22181     22179     22182     22184     22181     22179     22182     22185
     22182     22185     22188     22189     22182     22185     22188     22190
     22182     22185     22188     22191     22183     22182     22185     22186
     22183     22182     22185     22187     22183     22182     22185     22188
     22184     22182     22185     22186     22184     22182     22185     22187
     22184     22182     22185     22188     22185     22188     22191     22192
     22185     22188     22191     22193     22185     22188     22191     22194
     22186     22185     22188     22189     22186     22185     22188     22190
     22186     22185     22188     22191     22187     22185     22188     22189
     22187     22185     22188     22190     22187     22185     22188     22191
     22188     22191     22194     22195     22188     22191     22194     22196
     22188     22191     22194     22197     22189     22188     22191     22192
     22189     22188     22191     22193     22189     22188     22191     22194
     22190     22188     22191     22192     22190     22188     22191     22193
     22190     22188     22191     22194     22191     22194     22197     22198
     22191     22194     22197     22199     22191     22194     22197     22200
     22192     22191     22194     22195     22192     22191     22194     22196
     22192     22191     22194     22197     22193     22191     22194     22195
     22193     22191     22194     22196     22193     22191     22194     22197
     22194     22197     22200     22201     22194     22197     22200     22202
     22194     22197     22200     22203     22195     22194     22197     22198
     22195     22194     22197     22199     22195     22194     22197     22200
     22196     22194     22197     22198     22196     22194     22197     22199
     22196     22194     22197     22200     22197     22200     22203     22204
     22197     22200     22203     22205     22197     22200     22203     22206
     22198     22197     22200     22201     22198     22197     22200     22202
     22198     22197     22200     22203     22199     22197     22200     22201
     22199     22197     22200     22202     22199     22197     22200     22203
     22200     22203     22206     22207     22200     22203     22206     22208
     22200     22203     22206     22209     22201     22200     22203     22204
     22201     22200     22203     22205     22201     22200     22203     22206
     22202     22200     22203     22204     22202     22200     22203     22205
     22202     22200     22203     22206     22203     22206     22209     22210
     22203     22206     22209     22211     22203     22206     22209     22212
     22204     22203     22206     22207     22204     22203     22206     22208
     22204     22203     22206     22209     22205     22203     22206     22207
     22205     22203     22206     22208     22205     22203     22206     22209
     22206     22209     22212     22213     22206     22209     22212     22214
     22206     22209     22212     22215     22207     22206     22209     22210
     22207     22206     22209     22211     22207     22206     22209     22212
     22208     22206     22209     22210     22208     22206     22209     22211
     22208     22206     22209     22212     22209     22212     22215     22216
     22209     22212     22215     22217     22209     22212     22215     22218
     22210     22209     22212     22213     22210     22209     22212     22214
     22210     22209     22212     22215     22211     22209     22212     22213
     22211     22209     22212     22214     22211     22209     22212     22215
     22213     22212     22215     22216     22213     22212     22215     22217
     22213     22212     22215     22218     22214     22212     22215     22216
     22214     22212     22215     22217     22214     22212     22215     22218
     22219     22223     22226     22227     22219     22223     22226     22228
     22219     22223     22226     22233     22220     22219     22223     22224
     22220     22219     22223     22225     22220     22219     22223     22226
     22221     22219     22223     22224     22221     22219     22223     22225
     22221     22219     22223     22226     22222     22219     22223     22224
     22222     22219     22223     22225     22222     22219     22223     22226
     22223     22226     22233     22229     22224     22223     22226     22227
     22224     22223     22226     22228     22224     22223     22226     22233
     22225     22223     22226     22227     22225     22223     22226     22228
     22225     22223     22226     22233     22226     22233     22229     22230
     22226     22233     22229     22231     22226     22233     22229     22232
     22227     22226     22233     22229     22228     22226     22233     22229
     22229     22232     22234     22235     22229     22232     22234     22236
     22229     22232     22234     22237     22230     22229     22232     22234
     22231     22229     22232     22234     22232     22234     22237     22238
     22232     22234     22237     22239     22232     22234     22237     22245
     22233     22229     22232     22234     22234     22237     22239     22240
     22234     22237     22245     22246     22234     22237     22245     22247
     22234     22237     22245     22248     22235     22234     22237     22238
     22235     22234     22237     22239     22235     22234     22237     22245
     22236     22234     22237     22238     22236     22234     22237     22239
     22236     22234     22237     22245     22237     22239     22240     22241
     22237     22239     22240     22242     22237     22245     22248     22249
     22238     22237     22239     22240     22238     22237     22245     22246
     22238     22237     22245     22247     22238     22237     22245     22248
     22239     22237     22245     22246     22239     22237     22245     22247
     22239     22237     22245     22248     22239     22240     22242     22243
     22239     22240     22242     22244     22239     22240     22242     22254
     22240     22239     22237     22245     22240     22242     22254     22255
     22240     22242     22254     22256     22240     22242     22254     22257
     22241     22240     22242     22243     22241     22240     22242     22244
     22241     22240     22242     22254     22242     22254     22257     22258
     22242     22254     22257     22259     22242     22254     22257     22260
     22243     22242     22254     22255     22243     22242     22254     22256
     22243     22242     22254     22257     22244     22242     22254     22255
     22244     22242     22254     22256     22244     22242     22254     22257
     22245     22248     22249     22250     22245     22248     22249     22251
     22246     22245     22248     22249     22247     22245     22248     22249
     22248     22249     22251     22252     22248     22249     22251     22253
     22248     22249     22251     22298     22249     22251     22298     22299
     22249     22251     22298     22300     22249     22251     22298     22301
     22250     22249     22251     22252     22250     22249     22251     22253
     22250     22249     22251     22298     22251     22298     22301     22302
     22251     22298     22301     22303     22251     22298     22301     22304
     22252     22251     22298     22299     22252     22251     22298     22300
     22252     22251     22298     22301     22253     22251     22298     22299
     22253     22251     22298     22300     22253     22251     22298     22301
     22254     22257     22260     22261     22254     22257     22260     22262
     22254     22257     22260     22263     22255     22254     22257     22258
     22255     22254     22257     22259     22255     22254     22257     22260
     22256     22254     22257     22258     22256     22254     22257     22259
     22256     22254     22257     22260     22257     22260     22263     22264
     22257     22260     22263     22265     22257     22260     22263     22266
     22258     22257     22260     22261     22258     22257     22260     22262
     22258     22257     22260     22263     22259     22257     22260     22261
     22259     22257     22260     22262     22259     22257     22260     22263
     22260     22263     22266     22267     22260     22263     22266     22268
     22260     22263     22266     22269     22261     22260     22263     22264
     22261     22260     22263     22265     22261     22260     22263     22266
     22262     22260     22263     22264     22262     22260     22263     22265
     22262     22260     22263     22266     22263     22266     22269     22270
     22263     22266     22269     22271     22263     22266     22269     22272
     22264     22263     22266     22267     22264     22263     22266     22268
     22264     22263     22266     22269     22265     22263     22266     22267
     22265     22263     22266     22268     22265     22263     22266     22269
     22266     22269     22272     22273     22266     22269     22272     22274
     22266     22269     22272     22277     22267     22266     22269     22270
     22267     22266     22269     22271     22267     22266     22269     22272
     22268     22266     22269     22270     22268     22266     22269     22271
     22268     22266     22269     22272     22269     22272     22274     22275
     22269     22272     22274     22276     22269     22272     22274     22277
     22269     22272     22277     22274     22269     22272     22277     22278
     22269     22272     22277     22279     22270     22269     22272     22273
     22270     22269     22272     22274     22270     22269     22272     22277
     22271     22269     22272     22273     22271     22269     22272     22274
     22271     22269     22272     22277     22272     22274     22277     22278
     22272     22274     22277     22279     22272     22277     22274     22275
     22272     22277     22274     22276     22272     22277     22279     22280
     22272     22277     22279     22281     22272     22277     22279     22282
     22273     22272     22274     22275     22273     22272     22274     22276
     22273     22272     22274     22277     22273     22272     22277     22274
     22273     22272     22277     22278     22273     22272     22277     22279
     22274     22272     22277     22278     22274     22272     22277     22279
     22274     22277     22279     22280     22274     22277     22279     22281
     22274     22277     22279     22282     22275     22274     22272     22277
     22275     22274     22277     22278     22275     22274     22277     22279
     22276     22274     22272     22277     22276     22274     22277     22278
     22276     22274     22277     22279     22277     22279     22282     22283
     22277     22279     22282     22284     22277     22279     22282     22285
     22278     22277     22279     22280     22278     22277     22279     22281
     22278     22277     22279     22282     22279     22282     22285     22286
     22279     22282     22285     22287     22279     22282     22285     22288
     22280     22279     22282     22283     22280     22279     22282     22284
     22280     22279     22282     22285     22281     22279     22282     22283
     22281     22279     22282     22284     22281     22279     22282     22285
     22282     22285     22288     22289     22282     22285     22288     22290
     22282     22285     22288     22291     22283     22282     22285     22286
     22283     22282     22285     22287     22283     22282     22285     22288
     22284     22282     22285     22286     22284     22282     22285     22287
     22284     22282     22285     22288     22285     22288     22291     22292
     22285     22288     22291     22293     22285     22288     22291     22294
     22286     22285     22288     22289     22286     22285     22288     22290
     22286     22285     22288     22291     22287     22285     22288     22289
     22287     22285     22288     22290     22287     22285     22288     22291
     22288     22291     22294     22295     22288     22291     22294     22296
     22288     22291     22294     22297     22289     22288     22291     22292
     22289     22288     22291     22293     22289     22288     22291     22294
     22290     22288     22291     22292     22290     22288     22291     22293
     22290     22288     22291     22294     22292     22291     22294     22295
     22292     22291     22294     22296     22292     22291     22294     22297
     22293     22291     22294     22295     22293     22291     22294     22296
     22293     22291     22294     22297     22298     22301     22304     22305
     22298     22301     22304     22306     22298     22301     22304     22307
     22299     22298     22301     22302     22299     22298     22301     22303
     22299     22298     22301     22304     22300     22298     22301     22302
     22300     22298     22301     22303     22300     22298     22301     22304
     22301     22304     22307     22308     22301     22304     22307     22309
     22301     22304     22307     22310     22302     22301     22304     22305
     22302     22301     22304     22306     22302     22301     22304     22307
     22303     22301     22304     22305     22303     22301     22304     22306
     22303     22301     22304     22307     22304     22307     22310     22311
     22304     22307     22310     22312     22304     22307     22310     22313
     22305     22304     22307     22308     22305     22304     22307     22309
     22305     22304     22307     22310     22306     22304     22307     22308
     22306     22304     22307     22309     22306     22304     22307     22310
     22307     22310     22313     22314     22307     22310     22313     22315
     22307     22310     22313     22316     22308     22307     22310     22311
     22308     22307     22310     22312     22308     22307     22310     22313
     22309     22307     22310     22311     22309     22307     22310     22312
     22309     22307     22310     22313     22310     22313     22316     22317
     22310     22313     22316     22318     22310     22313     22316     22319
     22311     22310     22313     22314     22311     22310     22313     22315
     22311     22310     22313     22316     22312     22310     22313     22314
     22312     22310     22313     22315     22312     22310     22313     22316
     22313     22316     22319     22320     22313     22316     22319     22321
     22313     22316     22319     22322     22314     22313     22316     22317
     22314     22313     22316     22318     22314     22313     22316     22319
     22315     22313     22316     22317     22315     22313     22316     22318
     22315     22313     22316     22319     22316     22319     22322     22323
     22316     22319     22322     22324     22316     22319     22322     22325
     22317     22316     22319     22320     22317     22316     22319     22321
     22317     22316     22319     22322     22318     22316     22319     22320
     22318     22316     22319     22321     22318     22316     22319     22322
     22319     22322     22325     22326     22319     22322     22325     22327
     22319     22322     22325     22328     22320     22319     22322     22323
     22320     22319     22322     22324     22320     22319     22322     22325
     22321     22319     22322     22323     22321     22319     22322     22324
     22321     22319     22322     22325     22322     22325     22328     22329
     22322     22325     22328     22330     22322     22325     22328     22331
     22323     22322     22325     22326     22323     22322     22325     22327
     22323     22322     22325     22328     22324     22322     22325     22326
     22324     22322     22325     22327     22324     22322     22325     22328
     22325     22328     22331     22332     22325     22328     22331     22333
     22325     22328     22331     22334     22326     22325     22328     22329
     22326     22325     22328     22330     22326     22325     22328     22331
     22327     22325     22328     22329     22327     22325     22328     22330
     22327     22325     22328     22331     22328     22331     22334     22335
     22328     22331     22334     22336     22328     22331     22334     22337
     22329     22328     22331     22332     22329     22328     22331     22333
     22329     22328     22331     22334     22330     22328     22331     22332
     22330     22328     22331     22333     22330     22328     22331     22334
     22332     22331     22334     22335     22332     22331     22334     22336
     22332     22331     22334     22337     22333     22331     22334     22335
     22333     22331     22334     22336     22333     22331     22334     22337
     22338     22342     22345     22346     22338     22342     22345     22347
     22338     22342     22345     22352     22339     22338     22342     22343
     22339     22338     22342     22344     22339     22338     22342     22345
     22340     22338     22342     22343     22340     22338     22342     22344
     22340     22338     22342     22345     22341     22338     22342     22343
     22341     22338     22342     22344     22341     22338     22342     22345
     22342     22345     22352     22348     22343     22342     22345     22346
     22343     22342     22345     22347     22343     22342     22345     22352
     22344     22342     22345     22346     22344     22342     22345     22347
     22344     22342     22345     22352     22345     22352     22348     22349
     22345     22352     22348     22350     22345     22352     22348     22351
     22346     22345     22352     22348     22347     22345     22352     22348
     22348     22351     22353     22354     22348     22351     22353     22355
     22348     22351     22353     22356     22349     22348     22351     22353
     22350     22348     22351     22353     22351     22353     22356     22357
     22351     22353     22356     22358     22351     22353     22356     22364
     22352     22348     22351     22353     22353     22356     22358     22359
     22353     22356     22364     22365     22353     22356     22364     22366
     22353     22356     22364     22367     22354     22353     22356     22357
     22354     22353     22356     22358     22354     22353     22356     22364
     22355     22353     22356     22357     22355     22353     22356     22358
     22355     22353     22356     22364     22356     22358     22359     22360
     22356     22358     22359     22361     22356     22364     22367     22368
     22357     22356     22358     22359     22357     22356     22364     22365
     22357     22356     22364     22366     22357     22356     22364     22367
     22358     22356     22364     22365     22358     22356     22364     22366
     22358     22356     22364     22367     22358     22359     22361     22362
     22358     22359     22361     22363     22358     22359     22361     22373
     22359     22358     22356     22364     22359     22361     22373     22374
     22359     22361     22373     22375     22359     22361     22373     22376
     22360     22359     22361     22362     22360     22359     22361     22363
     22360     22359     22361     22373     22361     22373     22376     22377
     22361     22373     22376     22378     22361     22373     22376     22379
     22362     22361     22373     22374     22362     22361     22373     22375
     22362     22361     22373     22376     22363     22361     22373     22374
     22363     22361     22373     22375     22363     22361     22373     22376
     22364     22367     22368     22369     22364     22367     22368     22370
     22365     22364     22367     22368     22366     22364     22367     22368
     22367     22368     22370     22371     22367     22368     22370     22372
     22367     22368     22370     22417     22368     22370     22417     22418
     22368     22370     22417     22419     22368     22370     22417     22420
     22369     22368     22370     22371     22369     22368     22370     22372
     22369     22368     22370     22417     22370     22417     22420     22421
     22370     22417     22420     22422     22370     22417     22420     22423
     22371     22370     22417     22418     22371     22370     22417     22419
     22371     22370     22417     22420     22372     22370     22417     22418
     22372     22370     22417     22419     22372     22370     22417     22420
     22373     22376     22379     22380     22373     22376     22379     22381
     22373     22376     22379     22382     22374     22373     22376     22377
     22374     22373     22376     22378     22374     22373     22376     22379
     22375     22373     22376     22377     22375     22373     22376     22378
     22375     22373     22376     22379     22376     22379     22382     22383
     22376     22379     22382     22384     22376     22379     22382     22385
     22377     22376     22379     22380     22377     22376     22379     22381
     22377     22376     22379     22382     22378     22376     22379     22380
     22378     22376     22379     22381     22378     22376     22379     22382
     22379     22382     22385     22386     22379     22382     22385     22387
     22379     22382     22385     22388     22380     22379     22382     22383
     22380     22379     22382     22384     22380     22379     22382     22385
     22381     22379     22382     22383     22381     22379     22382     22384
     22381     22379     22382     22385     22382     22385     22388     22389
     22382     22385     22388     22390     22382     22385     22388     22391
     22383     22382     22385     22386     22383     22382     22385     22387
     22383     22382     22385     22388     22384     22382     22385     22386
     22384     22382     22385     22387     22384     22382     22385     22388
     22385     22388     22391     22392     22385     22388     22391     22393
     22385     22388     22391     22396     22386     22385     22388     22389
     22386     22385     22388     22390     22386     22385     22388     22391
     22387     22385     22388     22389     22387     22385     22388     22390
     22387     22385     22388     22391     22388     22391     22393     22394
     22388     22391     22393     22395     22388     22391     22393     22396
     22388     22391     22396     22393     22388     22391     22396     22397
     22388     22391     22396     22398     22389     22388     22391     22392
     22389     22388     22391     22393     22389     22388     22391     22396
     22390     22388     22391     22392     22390     22388     22391     22393
     22390     22388     22391     22396     22391     22393     22396     22397
     22391     22393     22396     22398     22391     22396     22393     22394
     22391     22396     22393     22395     22391     22396     22398     22399
     22391     22396     22398     22400     22391     22396     22398     22401
     22392     22391     22393     22394     22392     22391     22393     22395
     22392     22391     22393     22396     22392     22391     22396     22393
     22392     22391     22396     22397     22392     22391     22396     22398
     22393     22391     22396     22397     22393     22391     22396     22398
     22393     22396     22398     22399     22393     22396     22398     22400
     22393     22396     22398     22401     22394     22393     22391     22396
     22394     22393     22396     22397     22394     22393     22396     22398
     22395     22393     22391     22396     22395     22393     22396     22397
     22395     22393     22396     22398     22396     22398     22401     22402
     22396     22398     22401     22403     22396     22398     22401     22404
     22397     22396     22398     22399     22397     22396     22398     22400
     22397     22396     22398     22401     22398     22401     22404     22405
     22398     22401     22404     22406     22398     22401     22404     22407
     22399     22398     22401     22402     22399     22398     22401     22403
     22399     22398     22401     22404     22400     22398     22401     22402
     22400     22398     22401     22403     22400     22398     22401     22404
     22401     22404     22407     22408     22401     22404     22407     22409
     22401     22404     22407     22410     22402     22401     22404     22405
     22402     22401     22404     22406     22402     22401     22404     22407
     22403     22401     22404     22405     22403     22401     22404     22406
     22403     22401     22404     22407     22404     22407     22410     22411
     22404     22407     22410     22412     22404     22407     22410     22413
     22405     22404     22407     22408     22405     22404     22407     22409
     22405     22404     22407     22410     22406     22404     22407     22408
     22406     22404     22407     22409     22406     22404     22407     22410
     22407     22410     22413     22414     22407     22410     22413     22415
     22407     22410     22413     22416     22408     22407     22410     22411
     22408     22407     22410     22412     22408     22407     22410     22413
     22409     22407     22410     22411     22409     22407     22410     22412
     22409     22407     22410     22413     22411     22410     22413     22414
     22411     22410     22413     22415     22411     22410     22413     22416
     22412     22410     22413     22414     22412     22410     22413     22415
     22412     22410     22413     22416     22417     22420     22423     22424
     22417     22420     22423     22425     22417     22420     22423     22426
     22418     22417     22420     22421     22418     22417     22420     22422
     22418     22417     22420     22423     22419     22417     22420     22421
     22419     22417     22420     22422     22419     22417     22420     22423
     22420     22423     22426     22427     22420     22423     22426     22428
     22420     22423     22426     22429     22421     22420     22423     22424
     22421     22420     22423     22425     22421     22420     22423     22426
     22422     22420     22423     22424     22422     22420     22423     22425
     22422     22420     22423     22426     22423     22426     22429     22430
     22423     22426     22429     22431     22423     22426     22429     22432
     22424     22423     22426     22427     22424     22423     22426     22428
     22424     22423     22426     22429     22425     22423     22426     22427
     22425     22423     22426     22428     22425     22423     22426     22429
     22426     22429     22432     22433     22426     22429     22432     22434
     22426     22429     22432     22435     22427     22426     22429     22430
     22427     22426     22429     22431     22427     22426     22429     22432
     22428     22426     22429     22430     22428     22426     22429     22431
     22428     22426     22429     22432     22429     22432     22435     22436
     22429     22432     22435     22437     22429     22432     22435     22438
     22430     22429     22432     22433     22430     22429     22432     22434
     22430     22429     22432     22435     22431     22429     22432     22433
     22431     22429     22432     22434     22431     22429     22432     22435
     22432     22435     22438     22439     22432     22435     22438     22440
     22432     22435     22438     22441     22433     22432     22435     22436
     22433     22432     22435     22437     22433     22432     22435     22438
     22434     22432     22435     22436     22434     22432     22435     22437
     22434     22432     22435     22438     22435     22438     22441     22442
     22435     22438     22441     22443     22435     22438     22441     22444
     22436     22435     22438     22439     22436     22435     22438     22440
     22436     22435     22438     22441     22437     22435     22438     22439
     22437     22435     22438     22440     22437     22435     22438     22441
     22438     22441     22444     22445     22438     22441     22444     22446
     22438     22441     22444     22447     22439     22438     22441     22442
     22439     22438     22441     22443     22439     22438     22441     22444
     22440     22438     22441     22442     22440     22438     22441     22443
     22440     22438     22441     22444     22441     22444     22447     22448
     22441     22444     22447     22449     22441     22444     22447     22450
     22442     22441     22444     22445     22442     22441     22444     22446
     22442     22441     22444     22447     22443     22441     22444     22445
     22443     22441     22444     22446     22443     22441     22444     22447
     22444     22447     22450     22451     22444     22447     22450     22452
     22444     22447     22450     22453     22445     22444     22447     22448
     22445     22444     22447     22449     22445     22444     22447     22450
     22446     22444     22447     22448     22446     22444     22447     22449
     22446     22444     22447     22450     22447     22450     22453     22454
     22447     22450     22453     22455     22447     22450     22453     22456
     22448     22447     22450     22451     22448     22447     22450     22452
     22448     22447     22450     22453     22449     22447     22450     22451
     22449     22447     22450     22452     22449     22447     22450     22453
     22450     22453     22456     22457     22450     22453     22456     22458
     22450     22453     22456     22459     22451     22450     22453     22454
     22451     22450     22453     22455     22451     22450     22453     22456
     22452     22450     22453     22454     22452     22450     22453     22455
     22452     22450     22453     22456     22454     22453     22456     22457
     22454     22453     22456     22458     22454     22453     22456     22459
     22455     22453     22456     22457     22455     22453     22456     22458
     22455     22453     22456     22459     22460     22465     22467     22468
     22460     22465     22469     22470     22460     22465     22469     22471
     22460     22465     22469     22476     22461     22460     22463     22464
     22461     22460     22465     22466     22461     22460     22465     22467
     22461     22460     22465     22469     22462     22460     22463     22464
     22462     22460     22465     22466     22462     22460     22465     22467
     22462     22460     22465     22469     22463     22460     22465     22466
     22463     22460     22465     22467     22463     22460     22465     22469
     22464     22463     22460     22465     22465     22469     22476     22472
     22466     22465     22467     22468     22466     22465     22469     22470
     22466     22465     22469     22471     22466     22465     22469     22476
     22467     22465     22469     22470     22467     22465     22469     22471
     22467     22465     22469     22476     22468     22467     22465     22469
     22469     22476     22472     22473     22469     22476     22472     22474
     22469     22476     22472     22475     22470     22469     22476     22472
     22471     22469     22476     22472     22472     22475     22477     22478
     22472     22475     22477     22479     22472     22475     22477     22480
     22473     22472     22475     22477     22474     22472     22475     22477
     22475     22477     22480     22481     22475     22477     22480     22482
     22475     22477     22480     22488     22476     22472     22475     22477
     22477     22480     22482     22483     22477     22480     22488     22489
     22477     22480     22488     22490     22477     22480     22488     22491
     22478     22477     22480     22481     22478     22477     22480     22482
     22478     22477     22480     22488     22479     22477     22480     22481
     22479     22477     22480     22482     22479     22477     22480     22488
     22480     22482     22483     22484     22480     22482     22483     22485
     22480     22488     22491     22492     22481     22480     22482     22483
     22481     22480     22488     22489     22481     22480     22488     22490
     22481     22480     22488     22491     22482     22480     22488     22489
     22482     22480     22488     22490     22482     22480     22488     22491
     22482     22483     22485     22486     22482     22483     22485     22487
     22482     22483     22485     22497     22483     22482     22480     22488
     22483     22485     22497     22498     22483     22485     22497     22499
     22483     22485     22497     22500     22484     22483     22485     22486
     22484     22483     22485     22487     22484     22483     22485     22497
     22485     22497     22500     22501     22485     22497     22500     22502
     22485     22497     22500     22503     22486     22485     22497     22498
     22486     22485     22497     22499     22486     22485     22497     22500
     22487     22485     22497     22498     22487     22485     22497     22499
     22487     22485     22497     22500     22488     22491     22492     22493
     22488     22491     22492     22494     22489     22488     22491     22492
     22490     22488     22491     22492     22491     22492     22494     22495
     22491     22492     22494     22496     22491     22492     22494     22541
     22492     22494     22541     22542     22492     22494     22541     22543
     22492     22494     22541     22544     22493     22492     22494     22495
     22493     22492     22494     22496     22493     22492     22494     22541
     22494     22541     22544     22545     22494     22541     22544     22546
     22494     22541     22544     22547     22495     22494     22541     22542
     22495     22494     22541     22543     22495     22494     22541     22544
     22496     22494     22541     22542     22496     22494     22541     22543
     22496     22494     22541     22544     22497     22500     22503     22504
     22497     22500     22503     22505     22497     22500     22503     22506
     22498     22497     22500     22501     22498     22497     22500     22502
     22498     22497     22500     22503     22499     22497     22500     22501
     22499     22497     22500     22502     22499     22497     22500     22503
     22500     22503     22506     22507     22500     22503     22506     22508
     22500     22503     22506     22509     22501     22500     22503     22504
     22501     22500     22503     22505     22501     22500     22503     22506
     22502     22500     22503     22504     22502     22500     22503     22505
     22502     22500     22503     22506     22503     22506     22509     22510
     22503     22506     22509     22511     22503     22506     22509     22512
     22504     22503     22506     22507     22504     22503     22506     22508
     22504     22503     22506     22509     22505     22503     22506     22507
     22505     22503     22506     22508     22505     22503     22506     22509
     22506     22509     22512     22513     22506     22509     22512     22514
     22506     22509     22512     22515     22507     22506     22509     22510
     22507     22506     22509     22511     22507     22506     22509     22512
     22508     22506     22509     22510     22508     22506     22509     22511
     22508     22506     22509     22512     22509     22512     22515     22516
     22509     22512     22515     22517     22509     22512     22515     22520
     22510     22509     22512     22513     22510     22509     22512     22514
     22510     22509     22512     22515     22511     22509     22512     22513
     22511     22509     22512     22514     22511     22509     22512     22515
     22512     22515     22517     22518     22512     22515     22517     22519
     22512     22515     22517     22520     22512     22515     22520     22517
     22512     22515     22520     22521     22512     22515     22520     22522
     22513     22512     22515     22516     22513     22512     22515     22517
     22513     22512     22515     22520     22514     22512     22515     22516
     22514     22512     22515     22517     22514     22512     22515     22520
     22515     22517     22520     22521     22515     22517     22520     22522
     22515     22520     22517     22518     22515     22520     22517     22519
     22515     22520     22522     22523     22515     22520     22522     22524
     22515     22520     22522     22525     22516     22515     22517     22518
     22516     22515     22517     22519     22516     22515     22517     22520
     22516     22515     22520     22517     22516     22515     22520     22521
     22516     22515     22520     22522     22517     22515     22520     22521
     22517     22515     22520     22522     22517     22520     22522     22523
     22517     22520     22522     22524     22517     22520     22522     22525
     22518     22517     22515     22520     22518     22517     22520     22521
     22518     22517     22520     22522     22519     22517     22515     22520
     22519     22517     22520     22521     22519     22517     22520     22522
     22520     22522     22525     22526     22520     22522     22525     22527
     22520     22522     22525     22528     22521     22520     22522     22523
     22521     22520     22522     22524     22521     22520     22522     22525
     22522     22525     22528     22529     22522     22525     22528     22530
     22522     22525     22528     22531     22523     22522     22525     22526
     22523     22522     22525     22527     22523     22522     22525     22528
     22524     22522     22525     22526     22524     22522     22525     22527
     22524     22522     22525     22528     22525     22528     22531     22532
     22525     22528     22531     22533     22525     22528     22531     22534
     22526     22525     22528     22529     22526     22525     22528     22530
     22526     22525     22528     22531     22527     22525     22528     22529
     22527     22525     22528     22530     22527     22525     22528     22531
     22528     22531     22534     22535     22528     22531     22534     22536
     22528     22531     22534     22537     22529     22528     22531     22532
     22529     22528     22531     22533     22529     22528     22531     22534
     22530     22528     22531     22532     22530     22528     22531     22533
     22530     22528     22531     22534     22531     22534     22537     22538
     22531     22534     22537     22539     22531     22534     22537     22540
     22532     22531     22534     22535     22532     22531     22534     22536
     22532     22531     22534     22537     22533     22531     22534     22535
     22533     22531     22534     22536     22533     22531     22534     22537
     22535     22534     22537     22538     22535     22534     22537     22539
     22535     22534     22537     22540     22536     22534     22537     22538
     22536     22534     22537     22539     22536     22534     22537     22540
     22541     22544     22547     22548     22541     22544     22547     22549
     22541     22544     22547     22550     22542     22541     22544     22545
     22542     22541     22544     22546     22542     22541     22544     22547
     22543     22541     22544     22545     22543     22541     22544     22546
     22543     22541     22544     22547     22544     22547     22550     22551
     22544     22547     22550     22552     22544     22547     22550     22553
     22545     22544     22547     22548     22545     22544     22547     22549
     22545     22544     22547     22550     22546     22544     22547     22548
     22546     22544     22547     22549     22546     22544     22547     22550
     22547     22550     22553     22554     22547     22550     22553     22555
     22547     22550     22553     22556     22548     22547     22550     22551
     22548     22547     22550     22552     22548     22547     22550     22553
     22549     22547     22550     22551     22549     22547     22550     22552
     22549     22547     22550     22553     22550     22553     22556     22557
     22550     22553     22556     22558     22550     22553     22556     22559
     22551     22550     22553     22554     22551     22550     22553     22555
     22551     22550     22553     22556     22552     22550     22553     22554
     22552     22550     22553     22555     22552     22550     22553     22556
     22553     22556     22559     22560     22553     22556     22559     22561
     22553     22556     22559     22562     22554     22553     22556     22557
     22554     22553     22556     22558     22554     22553     22556     22559
     22555     22553     22556     22557     22555     22553     22556     22558
     22555     22553     22556     22559     22556     22559     22562     22563
     22556     22559     22562     22564     22556     22559     22562     22565
     22557     22556     22559     22560     22557     22556     22559     22561
     22557     22556     22559     22562     22558     22556     22559     22560
     22558     22556     22559     22561     22558     22556     22559     22562
     22559     22562     22565     22566     22559     22562     22565     22567
     22559     22562     22565     22568     22560     22559     22562     22563
     22560     22559     22562     22564     22560     22559     22562     22565
     22561     22559     22562     22563     22561     22559     22562     22564
     22561     22559     22562     22565     22562     22565     22568     22569
     22562     22565     22568     22570     22562     22565     22568     22571
     22563     22562     22565     22566     22563     22562     22565     22567
     22563     22562     22565     22568     22564     22562     22565     22566
     22564     22562     22565     22567     22564     22562     22565     22568
     22565     22568     22571     22572     22565     22568     22571     22573
     22565     22568     22571     22574     22566     22565     22568     22569
     22566     22565     22568     22570     22566     22565     22568     22571
     22567     22565     22568     22569     22567     22565     22568     22570
     22567     22565     22568     22571     22568     22571     22574     22575
     22568     22571     22574     22576     22568     22571     22574     22577
     22569     22568     22571     22572     22569     22568     22571     22573
     22569     22568     22571     22574     22570     22568     22571     22572
     22570     22568     22571     22573     22570     22568     22571     22574
     22571     22574     22577     22578     22571     22574     22577     22579
     22571     22574     22577     22580     22572     22571     22574     22575
     22572     22571     22574     22576     22572     22571     22574     22577
     22573     22571     22574     22575     22573     22571     22574     22576
     22573     22571     22574     22577     22574     22577     22580     22581
     22574     22577     22580     22582     22574     22577     22580     22583
     22575     22574     22577     22578     22575     22574     22577     22579
     22575     22574     22577     22580     22576     22574     22577     22578
     22576     22574     22577     22579     22576     22574     22577     22580
     22578     22577     22580     22581     22578     22577     22580     22582
     22578     22577     22580     22583     22579     22577     22580     22581
     22579     22577     22580     22582     22579     22577     22580     22583
     22584     22589     22591     22592     22584     22589     22593     22594
     22584     22589     22593     22595     22584     22589     22593     22600
     22585     22584     22587     22588     22585     22584     22589     22590
     22585     22584     22589     22591     22585     22584     22589     22593
     22586     22584     22587     22588     22586     22584     22589     22590
     22586     22584     22589     22591     22586     22584     22589     22593
     22587     22584     22589     22590     22587     22584     22589     22591
     22587     22584     22589     22593     22588     22587     22584     22589
     22589     22593     22600     22596     22590     22589     22591     22592
     22590     22589     22593     22594     22590     22589     22593     22595
     22590     22589     22593     22600     22591     22589     22593     22594
     22591     22589     22593     22595     22591     22589     22593     22600
     22592     22591     22589     22593     22593     22600     22596     22597
     22593     22600     22596     22598     22593     22600     22596     22599
     22594     22593     22600     22596     22595     22593     22600     22596
     22596     22599     22601     22602     22596     22599     22601     22603
     22596     22599     22601     22604     22597     22596     22599     22601
     22598     22596     22599     22601     22599     22601     22604     22605
     22599     22601     22604     22606     22599     22601     22604     22612
     22600     22596     22599     22601     22601     22604     22606     22607
     22601     22604     22612     22613     22601     22604     22612     22614
     22601     22604     22612     22615     22602     22601     22604     22605
     22602     22601     22604     22606     22602     22601     22604     22612
     22603     22601     22604     22605     22603     22601     22604     22606
     22603     22601     22604     22612     22604     22606     22607     22608
     22604     22606     22607     22609     22604     22612     22615     22616
     22605     22604     22606     22607     22605     22604     22612     22613
     22605     22604     22612     22614     22605     22604     22612     22615
     22606     22604     22612     22613     22606     22604     22612     22614
     22606     22604     22612     22615     22606     22607     22609     22610
     22606     22607     22609     22611     22606     22607     22609     22621
     22607     22606     22604     22612     22607     22609     22621     22622
     22607     22609     22621     22623     22607     22609     22621     22624
     22608     22607     22609     22610     22608     22607     22609     22611
     22608     22607     22609     22621     22609     22621     22624     22625
     22609     22621     22624     22626     22609     22621     22624     22627
     22610     22609     22621     22622     22610     22609     22621     22623
     22610     22609     22621     22624     22611     22609     22621     22622
     22611     22609     22621     22623     22611     22609     22621     22624
     22612     22615     22616     22617     22612     22615     22616     22618
     22613     22612     22615     22616     22614     22612     22615     22616
     22615     22616     22618     22619     22615     22616     22618     22620
     22615     22616     22618     22665     22616     22618     22665     22666
     22616     22618     22665     22667     22616     22618     22665     22668
     22617     22616     22618     22619     22617     22616     22618     22620
     22617     22616     22618     22665     22618     22665     22668     22669
     22618     22665     22668     22670     22618     22665     22668     22671
     22619     22618     22665     22666     22619     22618     22665     22667
     22619     22618     22665     22668     22620     22618     22665     22666
     22620     22618     22665     22667     22620     22618     22665     22668
     22621     22624     22627     22628     22621     22624     22627     22629
     22621     22624     22627     22630     22622     22621     22624     22625
     22622     22621     22624     22626     22622     22621     22624     22627
     22623     22621     22624     22625     22623     22621     22624     22626
     22623     22621     22624     22627     22624     22627     22630     22631
     22624     22627     22630     22632     22624     22627     22630     22633
     22625     22624     22627     22628     22625     22624     22627     22629
     22625     22624     22627     22630     22626     22624     22627     22628
     22626     22624     22627     22629     22626     22624     22627     22630
     22627     22630     22633     22634     22627     22630     22633     22635
     22627     22630     22633     22636     22628     22627     22630     22631
     22628     22627     22630     22632     22628     22627     22630     22633
     22629     22627     22630     22631     22629     22627     22630     22632
     22629     22627     22630     22633     22630     22633     22636     22637
     22630     22633     22636     22638     22630     22633     22636     22639
     22631     22630     22633     22634     22631     22630     22633     22635
     22631     22630     22633     22636     22632     22630     22633     22634
     22632     22630     22633     22635     22632     22630     22633     22636
     22633     22636     22639     22640     22633     22636     22639     22641
     22633     22636     22639     22644     22634     22633     22636     22637
     22634     22633     22636     22638     22634     22633     22636     22639
     22635     22633     22636     22637     22635     22633     22636     22638
     22635     22633     22636     22639     22636     22639     22641     22642
     22636     22639     22641     22643     22636     22639     22641     22644
     22636     22639     22644     22641     22636     22639     22644     22645
     22636     22639     22644     22646     22637     22636     22639     22640
     22637     22636     22639     22641     22637     22636     22639     22644
     22638     22636     22639     22640     22638     22636     22639     22641
     22638     22636     22639     22644     22639     22641     22644     22645
     22639     22641     22644     22646     22639     22644     22641     22642
     22639     22644     22641     22643     22639     22644     22646     22647
     22639     22644     22646     22648     22639     22644     22646     22649
     22640     22639     22641     22642     22640     22639     22641     22643
     22640     22639     22641     22644     22640     22639     22644     22641
     22640     22639     22644     22645     22640     22639     22644     22646
     22641     22639     22644     22645     22641     22639     22644     22646
     22641     22644     22646     22647     22641     22644     22646     22648
     22641     22644     22646     22649     22642     22641     22639     22644
     22642     22641     22644     22645     22642     22641     22644     22646
     22643     22641     22639     22644     22643     22641     22644     22645
     22643     22641     22644     22646     22644     22646     22649     22650
     22644     22646     22649     22651     22644     22646     22649     22652
     22645     22644     22646     22647     22645     22644     22646     22648
     22645     22644     22646     22649     22646     22649     22652     22653
     22646     22649     22652     22654     22646     22649     22652     22655
     22647     22646     22649     22650     22647     22646     22649     22651
     22647     22646     22649     22652     22648     22646     22649     22650
     22648     22646     22649     22651     22648     22646     22649     22652
     22649     22652     22655     22656     22649     22652     22655     22657
     22649     22652     22655     22658     22650     22649     22652     22653
     22650     22649     22652     22654     22650     22649     22652     22655
     22651     22649     22652     22653     22651     22649     22652     22654
     22651     22649     22652     22655     22652     22655     22658     22659
     22652     22655     22658     22660     22652     22655     22658     22661
     22653     22652     22655     22656     22653     22652     22655     22657
     22653     22652     22655     22658     22654     22652     22655     22656
     22654     22652     22655     22657     22654     22652     22655     22658
     22655     22658     22661     22662     22655     22658     22661     22663
     22655     22658     22661     22664     22656     22655     22658     22659
     22656     22655     22658     22660     22656     22655     22658     22661
     22657     22655     22658     22659     22657     22655     22658     22660
     22657     22655     22658     22661     22659     22658     22661     22662
     22659     22658     22661     22663     22659     22658     22661     22664
     22660     22658     22661     22662     22660     22658     22661     22663
     22660     22658     22661     22664     22665     22668     22671     22672
     22665     22668     22671     22673     22665     22668     22671     22674
     22666     22665     22668     22669     22666     22665     22668     22670
     22666     22665     22668     22671     22667     22665     22668     22669
     22667     22665     22668     22670     22667     22665     22668     22671
     22668     22671     22674     22675     22668     22671     22674     22676
     22668     22671     22674     22677     22669     22668     22671     22672
     22669     22668     22671     22673     22669     22668     22671     22674
     22670     22668     22671     22672     22670     22668     22671     22673
     22670     22668     22671     22674     22671     22674     22677     22678
     22671     22674     22677     22679     22671     22674     22677     22680
     22672     22671     22674     22675     22672     22671     22674     22676
     22672     22671     22674     22677     22673     22671     22674     22675
     22673     22671     22674     22676     22673     22671     22674     22677
     22674     22677     22680     22681     22674     22677     22680     22682
     22674     22677     22680     22683     22675     22674     22677     22678
     22675     22674     22677     22679     22675     22674     22677     22680
     22676     22674     22677     22678     22676     22674     22677     22679
     22676     22674     22677     22680     22677     22680     22683     22684
     22677     22680     22683     22685     22677     22680     22683     22686
     22678     22677     22680     22681     22678     22677     22680     22682
     22678     22677     22680     22683     22679     22677     22680     22681
     22679     22677     22680     22682     22679     22677     22680     22683
     22680     22683     22686     22687     22680     22683     22686     22688
     22680     22683     22686     22689     22681     22680     22683     22684
     22681     22680     22683     22685     22681     22680     22683     22686
     22682     22680     22683     22684     22682     22680     22683     22685
     22682     22680     22683     22686     22683     22686     22689     22690
     22683     22686     22689     22691     22683     22686     22689     22692
     22684     22683     22686     22687     22684     22683     22686     22688
     22684     22683     22686     22689     22685     22683     22686     22687
     22685     22683     22686     22688     22685     22683     22686     22689
     22686     22689     22692     22693     22686     22689     22692     22694
     22686     22689     22692     22695     22687     22686     22689     22690
     22687     22686     22689     22691     22687     22686     22689     22692
     22688     22686     22689     22690     22688     22686     22689     22691
     22688     22686     22689     22692     22689     22692     22695     22696
     22689     22692     22695     22697     22689     22692     22695     22698
     22690     22689     22692     22693     22690     22689     22692     22694
     22690     22689     22692     22695     22691     22689     22692     22693
     22691     22689     22692     22694     22691     22689     22692     22695
     22692     22695     22698     22699     22692     22695     22698     22700
     22692     22695     22698     22701     22693     22692     22695     22696
     22693     22692     22695     22697     22693     22692     22695     22698
     22694     22692     22695     22696     22694     22692     22695     22697
     22694     22692     22695     22698     22695     22698     22701     22702
     22695     22698     22701     22703     22695     22698     22701     22704
     22696     22695     22698     22699     22696     22695     22698     22700
     22696     22695     22698     22701     22697     22695     22698     22699
     22697     22695     22698     22700     22697     22695     22698     22701
     22698     22701     22704     22705     22698     22701     22704     22706
     22698     22701     22704     22707     22699     22698     22701     22702
     22699     22698     22701     22703     22699     22698     22701     22704
     22700     22698     22701     22702     22700     22698     22701     22703
     22700     22698     22701     22704     22702     22701     22704     22705
     22702     22701     22704     22706     22702     22701     22704     22707
     22703     22701     22704     22705     22703     22701     22704     22706
     22703     22701     22704     22707     22708     22712     22715     22716
     22708     22712     22715     22717     22708     22712     22715     22722
     22709     22708     22712     22713     22709     22708     22712     22714
     22709     22708     22712     22715     22710     22708     22712     22713
     22710     22708     22712     22714     22710     22708     22712     22715
     22711     22708     22712     22713     22711     22708     22712     22714
     22711     22708     22712     22715     22712     22715     22722     22718
     22713     22712     22715     22716     22713     22712     22715     22717
     22713     22712     22715     22722     22714     22712     22715     22716
     22714     22712     22715     22717     22714     22712     22715     22722
     22715     22722     22718     22719     22715     22722     22718     22720
     22715     22722     22718     22721     22716     22715     22722     22718
     22717     22715     22722     22718     22718     22721     22723     22724
     22718     22721     22723     22725     22718     22721     22723     22726
     22719     22718     22721     22723     22720     22718     22721     22723
     22721     22723     22726     22727     22721     22723     22726     22728
     22721     22723     22726     22734     22722     22718     22721     22723
     22723     22726     22728     22729     22723     22726     22734     22735
     22723     22726     22734     22736     22723     22726     22734     22737
     22724     22723     22726     22727     22724     22723     22726     22728
     22724     22723     22726     22734     22725     22723     22726     22727
     22725     22723     22726     22728     22725     22723     22726     22734
     22726     22728     22729     22730     22726     22728     22729     22731
     22726     22734     22737     22738     22727     22726     22728     22729
     22727     22726     22734     22735     22727     22726     22734     22736
     22727     22726     22734     22737     22728     22726     22734     22735
     22728     22726     22734     22736     22728     22726     22734     22737
     22728     22729     22731     22732     22728     22729     22731     22733
     22728     22729     22731     22743     22729     22728     22726     22734
     22729     22731     22743     22744     22729     22731     22743     22745
     22729     22731     22743     22746     22730     22729     22731     22732
     22730     22729     22731     22733     22730     22729     22731     22743
     22731     22743     22746     22747     22731     22743     22746     22748
     22731     22743     22746     22749     22732     22731     22743     22744
     22732     22731     22743     22745     22732     22731     22743     22746
     22733     22731     22743     22744     22733     22731     22743     22745
     22733     22731     22743     22746     22734     22737     22738     22739
     22734     22737     22738     22740     22735     22734     22737     22738
     22736     22734     22737     22738     22737     22738     22740     22741
     22737     22738     22740     22742     22737     22738     22740     22784
     22738     22740     22784     22785     22738     22740     22784     22786
     22738     22740     22784     22787     22739     22738     22740     22741
     22739     22738     22740     22742     22739     22738     22740     22784
     22740     22784     22787     22788     22740     22784     22787     22789
     22740     22784     22787     22790     22741     22740     22784     22785
     22741     22740     22784     22786     22741     22740     22784     22787
     22742     22740     22784     22785     22742     22740     22784     22786
     22742     22740     22784     22787     22743     22746     22749     22750
     22743     22746     22749     22751     22743     22746     22749     22752
     22744     22743     22746     22747     22744     22743     22746     22748
     22744     22743     22746     22749     22745     22743     22746     22747
     22745     22743     22746     22748     22745     22743     22746     22749
     22746     22749     22752     22753     22746     22749     22752     22754
     22746     22749     22752     22755     22747     22746     22749     22750
     22747     22746     22749     22751     22747     22746     22749     22752
     22748     22746     22749     22750     22748     22746     22749     22751
     22748     22746     22749     22752     22749     22752     22755     22756
     22749     22752     22755     22757     22749     22752     22755     22758
     22750     22749     22752     22753     22750     22749     22752     22754
     22750     22749     22752     22755     22751     22749     22752     22753
     22751     22749     22752     22754     22751     22749     22752     22755
     22752     22755     22758     22759     22752     22755     22758     22760
     22752     22755     22758     22761     22753     22752     22755     22756
     22753     22752     22755     22757     22753     22752     22755     22758
     22754     22752     22755     22756     22754     22752     22755     22757
     22754     22752     22755     22758     22755     22758     22761     22762
     22755     22758     22761     22763     22756     22755     22758     22759
     22756     22755     22758     22760     22756     22755     22758     22761
     22757     22755     22758     22759     22757     22755     22758     22760
     22757     22755     22758     22761     22758     22761     22763     22764
     22758     22761     22763     22765     22759     22758     22761     22762
     22759     22758     22761     22763     22760     22758     22761     22762
     22760     22758     22761     22763     22761     22763     22765     22766
     22761     22763     22765     22767     22761     22763     22765     22768
     22762     22761     22763     22764     22762     22761     22763     22765
     22763     22765     22768     22769     22763     22765     22768     22770
     22763     22765     22768     22771     22764     22763     22765     22766
     22764     22763     22765     22767     22764     22763     22765     22768
     22765     22768     22771     22772     22765     22768     22771     22773
     22765     22768     22771     22774     22766     22765     22768     22769
     22766     22765     22768     22770     22766     22765     22768     22771
     22767     22765     22768     22769     22767     22765     22768     22770
     22767     22765     22768     22771     22768     22771     22774     22775
     22768     22771     22774     22776     22768     22771     22774     22777
     22769     22768     22771     22772     22769     22768     22771     22773
     22769     22768     22771     22774     22770     22768     22771     22772
     22770     22768     22771     22773     22770     22768     22771     22774
     22771     22774     22777     22778     22771     22774     22777     22779
     22771     22774     22777     22780     22772     22771     22774     22775
     22772     22771     22774     22776     22772     22771     22774     22777
     22773     22771     22774     22775     22773     22771     22774     22776
     22773     22771     22774     22777     22774     22777     22780     22781
     22774     22777     22780     22782     22774     22777     22780     22783
     22775     22774     22777     22778     22775     22774     22777     22779
     22775     22774     22777     22780     22776     22774     22777     22778
     22776     22774     22777     22779     22776     22774     22777     22780
     22778     22777     22780     22781     22778     22777     22780     22782
     22778     22777     22780     22783     22779     22777     22780     22781
     22779     22777     22780     22782     22779     22777     22780     22783
     22784     22787     22790     22791     22784     22787     22790     22792
     22784     22787     22790     22793     22785     22784     22787     22788
     22785     22784     22787     22789     22785     22784     22787     22790
     22786     22784     22787     22788     22786     22784     22787     22789
     22786     22784     22787     22790     22787     22790     22793     22794
     22787     22790     22793     22795     22787     22790     22793     22796
     22788     22787     22790     22791     22788     22787     22790     22792
     22788     22787     22790     22793     22789     22787     22790     22791
     22789     22787     22790     22792     22789     22787     22790     22793
     22790     22793     22796     22797     22790     22793     22796     22798
     22790     22793     22796     22799     22791     22790     22793     22794
     22791     22790     22793     22795     22791     22790     22793     22796
     22792     22790     22793     22794     22792     22790     22793     22795
     22792     22790     22793     22796     22793     22796     22799     22800
     22793     22796     22799     22801     22793     22796     22799     22802
     22794     22793     22796     22797     22794     22793     22796     22798
     22794     22793     22796     22799     22795     22793     22796     22797
     22795     22793     22796     22798     22795     22793     22796     22799
     22796     22799     22802     22803     22796     22799     22802     22804
     22797     22796     22799     22800     22797     22796     22799     22801
     22797     22796     22799     22802     22798     22796     22799     22800
     22798     22796     22799     22801     22798     22796     22799     22802
     22799     22802     22804     22805     22799     22802     22804     22806
     22800     22799     22802     22803     22800     22799     22802     22804
     22801     22799     22802     22803     22801     22799     22802     22804
     22802     22804     22806     22807     22802     22804     22806     22808
     22802     22804     22806     22809     22803     22802     22804     22805
     22803     22802     22804     22806     22804     22806     22809     22810
     22804     22806     22809     22811     22804     22806     22809     22812
     22805     22804     22806     22807     22805     22804     22806     22808
     22805     22804     22806     22809     22806     22809     22812     22813
     22806     22809     22812     22814     22806     22809     22812     22815
     22807     22806     22809     22810     22807     22806     22809     22811
     22807     22806     22809     22812     22808     22806     22809     22810
     22808     22806     22809     22811     22808     22806     22809     22812
     22809     22812     22815     22816     22809     22812     22815     22817
     22809     22812     22815     22818     22810     22809     22812     22813
     22810     22809     22812     22814     22810     22809     22812     22815
     22811     22809     22812     22813     22811     22809     22812     22814
     22811     22809     22812     22815     22812     22815     22818     22819
     22812     22815     22818     22820     22812     22815     22818     22821
     22813     22812     22815     22816     22813     22812     22815     22817
     22813     22812     22815     22818     22814     22812     22815     22816
     22814     22812     22815     22817     22814     22812     22815     22818
     22815     22818     22821     22822     22815     22818     22821     22823
     22815     22818     22821     22824     22816     22815     22818     22819
     22816     22815     22818     22820     22816     22815     22818     22821
     22817     22815     22818     22819     22817     22815     22818     22820
     22817     22815     22818     22821     22818     22821     22824     22825
     22818     22821     22824     22826     22818     22821     22824     22827
     22819     22818     22821     22822     22819     22818     22821     22823
     22819     22818     22821     22824     22820     22818     22821     22822
     22820     22818     22821     22823     22820     22818     22821     22824
     22821     22824     22827     22828     22821     22824     22827     22829
     22821     22824     22827     22830     22822     22821     22824     22825
     22822     22821     22824     22826     22822     22821     22824     22827
     22823     22821     22824     22825     22823     22821     22824     22826
     22823     22821     22824     22827     22825     22824     22827     22828
     22825     22824     22827     22829     22825     22824     22827     22830
     22826     22824     22827     22828     22826     22824     22827     22829
     22826     22824     22827     22830     22831     22835     22838     22839
     22831     22835     22838     22840     22831     22835     22838     22845
     22832     22831     22835     22836     22832     22831     22835     22837
     22832     22831     22835     22838     22833     22831     22835     22836
     22833     22831     22835     22837     22833     22831     22835     22838
     22834     22831     22835     22836     22834     22831     22835     22837
     22834     22831     22835     22838     22835     22838     22845     22841
     22836     22835     22838     22839     22836     22835     22838     22840
     22836     22835     22838     22845     22837     22835     22838     22839
     22837     22835     22838     22840     22837     22835     22838     22845
     22838     22845     22841     22842     22838     22845     22841     22843
     22838     22845     22841     22844     22839     22838     22845     22841
     22840     22838     22845     22841     22841     22844     22846     22847
     22841     22844     22846     22848     22841     22844     22846     22849
     22842     22841     22844     22846     22843     22841     22844     22846
     22844     22846     22849     22850     22844     22846     22849     22851
     22844     22846     22849     22857     22845     22841     22844     22846
     22846     22849     22851     22852     22846     22849     22857     22858
     22846     22849     22857     22859     22846     22849     22857     22860
     22847     22846     22849     22850     22847     22846     22849     22851
     22847     22846     22849     22857     22848     22846     22849     22850
     22848     22846     22849     22851     22848     22846     22849     22857
     22849     22851     22852     22853     22849     22851     22852     22854
     22849     22857     22860     22861     22850     22849     22851     22852
     22850     22849     22857     22858     22850     22849     22857     22859
     22850     22849     22857     22860     22851     22849     22857     22858
     22851     22849     22857     22859     22851     22849     22857     22860
     22851     22852     22854     22855     22851     22852     22854     22856
     22851     22852     22854     22866     22852     22851     22849     22857
     22852     22854     22866     22867     22852     22854     22866     22868
     22852     22854     22866     22869     22853     22852     22854     22855
     22853     22852     22854     22856     22853     22852     22854     22866
     22854     22866     22869     22870     22854     22866     22869     22871
     22854     22866     22869     22872     22855     22854     22866     22867
     22855     22854     22866     22868     22855     22854     22866     22869
     22856     22854     22866     22867     22856     22854     22866     22868
     22856     22854     22866     22869     22857     22860     22861     22862
     22857     22860     22861     22863     22858     22857     22860     22861
     22859     22857     22860     22861     22860     22861     22863     22864
     22860     22861     22863     22865     22860     22861     22863     22913
     22861     22863     22913     22914     22861     22863     22913     22915
     22861     22863     22913     22916     22862     22861     22863     22864
     22862     22861     22863     22865     22862     22861     22863     22913
     22863     22913     22916     22917     22863     22913     22916     22918
     22863     22913     22916     22919     22864     22863     22913     22914
     22864     22863     22913     22915     22864     22863     22913     22916
     22865     22863     22913     22914     22865     22863     22913     22915
     22865     22863     22913     22916     22866     22869     22872     22873
     22866     22869     22872     22874     22866     22869     22872     22875
     22867     22866     22869     22870     22867     22866     22869     22871
     22867     22866     22869     22872     22868     22866     22869     22870
     22868     22866     22869     22871     22868     22866     22869     22872
     22869     22872     22875     22876     22869     22872     22875     22877
     22869     22872     22875     22878     22870     22869     22872     22873
     22870     22869     22872     22874     22870     22869     22872     22875
     22871     22869     22872     22873     22871     22869     22872     22874
     22871     22869     22872     22875     22872     22875     22878     22879
     22872     22875     22878     22880     22872     22875     22878     22881
     22873     22872     22875     22876     22873     22872     22875     22877
     22873     22872     22875     22878     22874     22872     22875     22876
     22874     22872     22875     22877     22874     22872     22875     22878
     22875     22878     22881     22882     22875     22878     22881     22883
     22875     22878     22881     22884     22876     22875     22878     22879
     22876     22875     22878     22880     22876     22875     22878     22881
     22877     22875     22878     22879     22877     22875     22878     22880
     22877     22875     22878     22881     22878     22881     22884     22885
     22878     22881     22884     22886     22879     22878     22881     22882
     22879     22878     22881     22883     22879     22878     22881     22884
     22880     22878     22881     22882     22880     22878     22881     22883
     22880     22878     22881     22884     22881     22884     22886     22887
     22881     22884     22886     22888     22882     22881     22884     22885
     22882     22881     22884     22886     22883     22881     22884     22885
     22883     22881     22884     22886     22884     22886     22888     22889
     22884     22886     22888     22890     22884     22886     22888     22891
     22885     22884     22886     22887     22885     22884     22886     22888
     22886     22888     22891     22892     22886     22888     22891     22893
     22886     22888     22891     22894     22887     22886     22888     22889
     22887     22886     22888     22890     22887     22886     22888     22891
     22888     22891     22894     22895     22888     22891     22894     22896
     22888     22891     22894     22897     22889     22888     22891     22892
     22889     22888     22891     22893     22889     22888     22891     22894
     22890     22888     22891     22892     22890     22888     22891     22893
     22890     22888     22891     22894     22891     22894     22897     22898
     22891     22894     22897     22899     22891     22894     22897     22900
     22892     22891     22894     22895     22892     22891     22894     22896
     22892     22891     22894     22897     22893     22891     22894     22895
     22893     22891     22894     22896     22893     22891     22894     22897
     22894     22897     22900     22901     22894     22897     22900     22902
     22894     22897     22900     22903     22895     22894     22897     22898
     22895     22894     22897     22899     22895     22894     22897     22900
     22896     22894     22897     22898     22896     22894     22897     22899
     22896     22894     22897     22900     22897     22900     22903     22904
     22897     22900     22903     22905     22897     22900     22903     22906
     22898     22897     22900     22901     22898     22897     22900     22902
     22898     22897     22900     22903     22899     22897     22900     22901
     22899     22897     22900     22902     22899     22897     22900     22903
     22900     22903     22906     22907     22900     22903     22906     22908
     22900     22903     22906     22909     22901     22900     22903     22904
     22901     22900     22903     22905     22901     22900     22903     22906
     22902     22900     22903     22904     22902     22900     22903     22905
     22902     22900     22903     22906     22903     22906     22909     22910
     22903     22906     22909     22911     22903     22906     22909     22912
     22904     22903     22906     22907     22904     22903     22906     22908
     22904     22903     22906     22909     22905     22903     22906     22907
     22905     22903     22906     22908     22905     22903     22906     22909
     22907     22906     22909     22910     22907     22906     22909     22911
     22907     22906     22909     22912     22908     22906     22909     22910
     22908     22906     22909     22911     22908     22906     22909     22912
     22913     22916     22919     22920     22913     22916     22919     22921
     22913     22916     22919     22922     22914     22913     22916     22917
     22914     22913     22916     22918     22914     22913     22916     22919
     22915     22913     22916     22917     22915     22913     22916     22918
     22915     22913     22916     22919     22916     22919     22922     22923
     22916     22919     22922     22924     22916     22919     22922     22925
     22917     22916     22919     22920     22917     22916     22919     22921
     22917     22916     22919     22922     22918     22916     22919     22920
     22918     22916     22919     22921     22918     22916     22919     22922
     22919     22922     22925     22926     22919     22922     22925     22927
     22919     22922     22925     22928     22920     22919     22922     22923
     22920     22919     22922     22924     22920     22919     22922     22925
     22921     22919     22922     22923     22921     22919     22922     22924
     22921     22919     22922     22925     22922     22925     22928     22929
     22922     22925     22928     22930     22922     22925     22928     22931
     22923     22922     22925     22926     22923     22922     22925     22927
     22923     22922     22925     22928     22924     22922     22925     22926
     22924     22922     22925     22927     22924     22922     22925     22928
     22925     22928     22931     22932     22925     22928     22931     22933
     22925     22928     22931     22934     22926     22925     22928     22929
     22926     22925     22928     22930     22926     22925     22928     22931
     22927     22925     22928     22929     22927     22925     22928     22930
     22927     22925     22928     22931     22928     22931     22934     22935
     22928     22931     22934     22936     22928     22931     22934     22937
     22929     22928     22931     22932     22929     22928     22931     22933
     22929     22928     22931     22934     22930     22928     22931     22932
     22930     22928     22931     22933     22930     22928     22931     22934
     22931     22934     22937     22938     22931     22934     22937     22939
     22931     22934     22937     22940     22932     22931     22934     22935
     22932     22931     22934     22936     22932     22931     22934     22937
     22933     22931     22934     22935     22933     22931     22934     22936
     22933     22931     22934     22937     22934     22937     22940     22941
     22934     22937     22940     22942     22934     22937     22940     22943
     22935     22934     22937     22938     22935     22934     22937     22939
     22935     22934     22937     22940     22936     22934     22937     22938
     22936     22934     22937     22939     22936     22934     22937     22940
     22937     22940     22943     22944     22937     22940     22943     22945
     22937     22940     22943     22946     22938     22937     22940     22941
     22938     22937     22940     22942     22938     22937     22940     22943
     22939     22937     22940     22941     22939     22937     22940     22942
     22939     22937     22940     22943     22940     22943     22946     22947
     22940     22943     22946     22948     22940     22943     22946     22949
     22941     22940     22943     22944     22941     22940     22943     22945
     22941     22940     22943     22946     22942     22940     22943     22944
     22942     22940     22943     22945     22942     22940     22943     22946
     22943     22946     22949     22950     22943     22946     22949     22951
     22943     22946     22949     22952     22944     22943     22946     22947
     22944     22943     22946     22948     22944     22943     22946     22949
     22945     22943     22946     22947     22945     22943     22946     22948
     22945     22943     22946     22949     22946     22949     22952     22953
     22946     22949     22952     22954     22946     22949     22952     22955
     22947     22946     22949     22950     22947     22946     22949     22951
     22947     22946     22949     22952     22948     22946     22949     22950
     22948     22946     22949     22951     22948     22946     22949     22952
     22950     22949     22952     22953     22950     22949     22952     22954
     22950     22949     22952     22955     22951     22949     22952     22953
     22951     22949     22952     22954     22951     22949     22952     22955
     22956     22961     22963     22964     22956     22961     22965     22966
     22956     22961     22965     22967     22956     22961     22965     22972
     22957     22956     22959     22960     22957     22956     22961     22962
     22957     22956     22961     22963     22957     22956     22961     22965
     22958     22956     22959     22960     22958     22956     22961     22962
     22958     22956     22961     22963     22958     22956     22961     22965
     22959     22956     22961     22962     22959     22956     22961     22963
     22959     22956     22961     22965     22960     22959     22956     22961
     22961     22965     22972     22968     22962     22961     22963     22964
     22962     22961     22965     22966     22962     22961     22965     22967
     22962     22961     22965     22972     22963     22961     22965     22966
     22963     22961     22965     22967     22963     22961     22965     22972
     22964     22963     22961     22965     22965     22972     22968     22969
     22965     22972     22968     22970     22965     22972     22968     22971
     22966     22965     22972     22968     22967     22965     22972     22968
     22968     22971     22973     22974     22968     22971     22973     22975
     22968     22971     22973     22976     22969     22968     22971     22973
     22970     22968     22971     22973     22971     22973     22976     22977
     22971     22973     22976     22978     22971     22973     22976     22984
     22972     22968     22971     22973     22973     22976     22978     22979
     22973     22976     22984     22985     22973     22976     22984     22986
     22973     22976     22984     22987     22974     22973     22976     22977
     22974     22973     22976     22978     22974     22973     22976     22984
     22975     22973     22976     22977     22975     22973     22976     22978
     22975     22973     22976     22984     22976     22978     22979     22980
     22976     22978     22979     22981     22976     22984     22987     22988
     22977     22976     22978     22979     22977     22976     22984     22985
     22977     22976     22984     22986     22977     22976     22984     22987
     22978     22976     22984     22985     22978     22976     22984     22986
     22978     22976     22984     22987     22978     22979     22981     22982
     22978     22979     22981     22983     22978     22979     22981     22993
     22979     22978     22976     22984     22979     22981     22993     22994
     22979     22981     22993     22995     22979     22981     22993     22996
     22980     22979     22981     22982     22980     22979     22981     22983
     22980     22979     22981     22993     22981     22993     22996     22997
     22981     22993     22996     22998     22981     22993     22996     22999
     22982     22981     22993     22994     22982     22981     22993     22995
     22982     22981     22993     22996     22983     22981     22993     22994
     22983     22981     22993     22995     22983     22981     22993     22996
     22984     22987     22988     22989     22984     22987     22988     22990
     22985     22984     22987     22988     22986     22984     22987     22988
     22987     22988     22990     22991     22987     22988     22990     22992
     22987     22988     22990     23037     22988     22990     23037     23038
     22988     22990     23037     23039     22988     22990     23037     23040
     22989     22988     22990     22991     22989     22988     22990     22992
     22989     22988     22990     23037     22990     23037     23040     23041
     22990     23037     23040     23042     22990     23037     23040     23043
     22991     22990     23037     23038     22991     22990     23037     23039
     22991     22990     23037     23040     22992     22990     23037     23038
     22992     22990     23037     23039     22992     22990     23037     23040
     22993     22996     22999     23000     22993     22996     22999     23001
     22993     22996     22999     23002     22994     22993     22996     22997
     22994     22993     22996     22998     22994     22993     22996     22999
     22995     22993     22996     22997     22995     22993     22996     22998
     22995     22993     22996     22999     22996     22999     23002     23003
     22996     22999     23002     23004     22996     22999     23002     23005
     22997     22996     22999     23000     22997     22996     22999     23001
     22997     22996     22999     23002     22998     22996     22999     23000
     22998     22996     22999     23001     22998     22996     22999     23002
     22999     23002     23005     23006     22999     23002     23005     23007
     22999     23002     23005     23008     23000     22999     23002     23003
     23000     22999     23002     23004     23000     22999     23002     23005
     23001     22999     23002     23003     23001     22999     23002     23004
     23001     22999     23002     23005     23002     23005     23008     23009
     23002     23005     23008     23010     23002     23005     23008     23011
     23003     23002     23005     23006     23003     23002     23005     23007
     23003     23002     23005     23008     23004     23002     23005     23006
     23004     23002     23005     23007     23004     23002     23005     23008
     23005     23008     23011     23012     23005     23008     23011     23013
     23005     23008     23011     23016     23006     23005     23008     23009
     23006     23005     23008     23010     23006     23005     23008     23011
     23007     23005     23008     23009     23007     23005     23008     23010
     23007     23005     23008     23011     23008     23011     23013     23014
     23008     23011     23013     23015     23008     23011     23013     23016
     23008     23011     23016     23013     23008     23011     23016     23017
     23008     23011     23016     23018     23009     23008     23011     23012
     23009     23008     23011     23013     23009     23008     23011     23016
     23010     23008     23011     23012     23010     23008     23011     23013
     23010     23008     23011     23016     23011     23013     23016     23017
     23011     23013     23016     23018     23011     23016     23013     23014
     23011     23016     23013     23015     23011     23016     23018     23019
     23011     23016     23018     23020     23011     23016     23018     23021
     23012     23011     23013     23014     23012     23011     23013     23015
     23012     23011     23013     23016     23012     23011     23016     23013
     23012     23011     23016     23017     23012     23011     23016     23018
     23013     23011     23016     23017     23013     23011     23016     23018
     23013     23016     23018     23019     23013     23016     23018     23020
     23013     23016     23018     23021     23014     23013     23011     23016
     23014     23013     23016     23017     23014     23013     23016     23018
     23015     23013     23011     23016     23015     23013     23016     23017
     23015     23013     23016     23018     23016     23018     23021     23022
     23016     23018     23021     23023     23016     23018     23021     23024
     23017     23016     23018     23019     23017     23016     23018     23020
     23017     23016     23018     23021     23018     23021     23024     23025
     23018     23021     23024     23026     23018     23021     23024     23027
     23019     23018     23021     23022     23019     23018     23021     23023
     23019     23018     23021     23024     23020     23018     23021     23022
     23020     23018     23021     23023     23020     23018     23021     23024
     23021     23024     23027     23028     23021     23024     23027     23029
     23021     23024     23027     23030     23022     23021     23024     23025
     23022     23021     23024     23026     23022     23021     23024     23027
     23023     23021     23024     23025     23023     23021     23024     23026
     23023     23021     23024     23027     23024     23027     23030     23031
     23024     23027     23030     23032     23024     23027     23030     23033
     23025     23024     23027     23028     23025     23024     23027     23029
     23025     23024     23027     23030     23026     23024     23027     23028
     23026     23024     23027     23029     23026     23024     23027     23030
     23027     23030     23033     23034     23027     23030     23033     23035
     23027     23030     23033     23036     23028     23027     23030     23031
     23028     23027     23030     23032     23028     23027     23030     23033
     23029     23027     23030     23031     23029     23027     23030     23032
     23029     23027     23030     23033     23031     23030     23033     23034
     23031     23030     23033     23035     23031     23030     23033     23036
     23032     23030     23033     23034     23032     23030     23033     23035
     23032     23030     23033     23036     23037     23040     23043     23044
     23037     23040     23043     23045     23037     23040     23043     23046
     23038     23037     23040     23041     23038     23037     23040     23042
     23038     23037     23040     23043     23039     23037     23040     23041
     23039     23037     23040     23042     23039     23037     23040     23043
     23040     23043     23046     23047     23040     23043     23046     23048
     23040     23043     23046     23049     23041     23040     23043     23044
     23041     23040     23043     23045     23041     23040     23043     23046
     23042     23040     23043     23044     23042     23040     23043     23045
     23042     23040     23043     23046     23043     23046     23049     23050
     23043     23046     23049     23051     23043     23046     23049     23052
     23044     23043     23046     23047     23044     23043     23046     23048
     23044     23043     23046     23049     23045     23043     23046     23047
     23045     23043     23046     23048     23045     23043     23046     23049
     23046     23049     23052     23053     23046     23049     23052     23054
     23046     23049     23052     23055     23047     23046     23049     23050
     23047     23046     23049     23051     23047     23046     23049     23052
     23048     23046     23049     23050     23048     23046     23049     23051
     23048     23046     23049     23052     23049     23052     23055     23056
     23049     23052     23055     23057     23049     23052     23055     23058
     23050     23049     23052     23053     23050     23049     23052     23054
     23050     23049     23052     23055     23051     23049     23052     23053
     23051     23049     23052     23054     23051     23049     23052     23055
     23052     23055     23058     23059     23052     23055     23058     23060
     23052     23055     23058     23061     23053     23052     23055     23056
     23053     23052     23055     23057     23053     23052     23055     23058
     23054     23052     23055     23056     23054     23052     23055     23057
     23054     23052     23055     23058     23055     23058     23061     23062
     23055     23058     23061     23063     23055     23058     23061     23064
     23056     23055     23058     23059     23056     23055     23058     23060
     23056     23055     23058     23061     23057     23055     23058     23059
     23057     23055     23058     23060     23057     23055     23058     23061
     23058     23061     23064     23065     23058     23061     23064     23066
     23058     23061     23064     23067     23059     23058     23061     23062
     23059     23058     23061     23063     23059     23058     23061     23064
     23060     23058     23061     23062     23060     23058     23061     23063
     23060     23058     23061     23064     23061     23064     23067     23068
     23061     23064     23067     23069     23061     23064     23067     23070
     23062     23061     23064     23065     23062     23061     23064     23066
     23062     23061     23064     23067     23063     23061     23064     23065
     23063     23061     23064     23066     23063     23061     23064     23067
     23064     23067     23070     23071     23064     23067     23070     23072
     23064     23067     23070     23073     23065     23064     23067     23068
     23065     23064     23067     23069     23065     23064     23067     23070
     23066     23064     23067     23068     23066     23064     23067     23069
     23066     23064     23067     23070     23067     23070     23073     23074
     23067     23070     23073     23075     23067     23070     23073     23076
     23068     23067     23070     23071     23068     23067     23070     23072
     23068     23067     23070     23073     23069     23067     23070     23071
     23069     23067     23070     23072     23069     23067     23070     23073
     23070     23073     23076     23077     23070     23073     23076     23078
     23070     23073     23076     23079     23071     23070     23073     23074
     23071     23070     23073     23075     23071     23070     23073     23076
     23072     23070     23073     23074     23072     23070     23073     23075
     23072     23070     23073     23076     23074     23073     23076     23077
     23074     23073     23076     23078     23074     23073     23076     23079
     23075     23073     23076     23077     23075     23073     23076     23078
     23075     23073     23076     23079     23080     23084     23087     23088
     23080     23084     23087     23089     23080     23084     23087     23094
     23081     23080     23084     23085     23081     23080     23084     23086
     23081     23080     23084     23087     23082     23080     23084     23085
     23082     23080     23084     23086     23082     23080     23084     23087
     23083     23080     23084     23085     23083     23080     23084     23086
     23083     23080     23084     23087     23084     23087     23094     23090
     23085     23084     23087     23088     23085     23084     23087     23089
     23085     23084     23087     23094     23086     23084     23087     23088
     23086     23084     23087     23089     23086     23084     23087     23094
     23087     23094     23090     23091     23087     23094     23090     23092
     23087     23094     23090     23093     23088     23087     23094     23090
     23089     23087     23094     23090     23090     23093     23095     23096
     23090     23093     23095     23097     23090     23093     23095     23098
     23091     23090     23093     23095     23092     23090     23093     23095
     23093     23095     23098     23099     23093     23095     23098     23100
     23093     23095     23098     23106     23094     23090     23093     23095
     23095     23098     23100     23101     23095     23098     23106     23107
     23095     23098     23106     23108     23095     23098     23106     23109
     23096     23095     23098     23099     23096     23095     23098     23100
     23096     23095     23098     23106     23097     23095     23098     23099
     23097     23095     23098     23100     23097     23095     23098     23106
     23098     23100     23101     23102     23098     23100     23101     23103
     23098     23106     23109     23110     23099     23098     23100     23101
     23099     23098     23106     23107     23099     23098     23106     23108
     23099     23098     23106     23109     23100     23098     23106     23107
     23100     23098     23106     23108     23100     23098     23106     23109
     23100     23101     23103     23104     23100     23101     23103     23105
     23100     23101     23103     23115     23101     23100     23098     23106
     23101     23103     23115     23116     23101     23103     23115     23117
     23101     23103     23115     23118     23102     23101     23103     23104
     23102     23101     23103     23105     23102     23101     23103     23115
     23103     23115     23118     23119     23103     23115     23118     23120
     23103     23115     23118     23121     23104     23103     23115     23116
     23104     23103     23115     23117     23104     23103     23115     23118
     23105     23103     23115     23116     23105     23103     23115     23117
     23105     23103     23115     23118     23106     23109     23110     23111
     23106     23109     23110     23112     23107     23106     23109     23110
     23108     23106     23109     23110     23109     23110     23112     23113
     23109     23110     23112     23114     23109     23110     23112     23159
     23110     23112     23159     23160     23110     23112     23159     23161
     23110     23112     23159     23162     23111     23110     23112     23113
     23111     23110     23112     23114     23111     23110     23112     23159
     23112     23159     23162     23163     23112     23159     23162     23164
     23112     23159     23162     23165     23113     23112     23159     23160
     23113     23112     23159     23161     23113     23112     23159     23162
     23114     23112     23159     23160     23114     23112     23159     23161
     23114     23112     23159     23162     23115     23118     23121     23122
     23115     23118     23121     23123     23115     23118     23121     23124
     23116     23115     23118     23119     23116     23115     23118     23120
     23116     23115     23118     23121     23117     23115     23118     23119
     23117     23115     23118     23120     23117     23115     23118     23121
     23118     23121     23124     23125     23118     23121     23124     23126
     23118     23121     23124     23127     23119     23118     23121     23122
     23119     23118     23121     23123     23119     23118     23121     23124
     23120     23118     23121     23122     23120     23118     23121     23123
     23120     23118     23121     23124     23121     23124     23127     23128
     23121     23124     23127     23129     23121     23124     23127     23130
     23122     23121     23124     23125     23122     23121     23124     23126
     23122     23121     23124     23127     23123     23121     23124     23125
     23123     23121     23124     23126     23123     23121     23124     23127
     23124     23127     23130     23131     23124     23127     23130     23132
     23124     23127     23130     23133     23125     23124     23127     23128
     23125     23124     23127     23129     23125     23124     23127     23130
     23126     23124     23127     23128     23126     23124     23127     23129
     23126     23124     23127     23130     23127     23130     23133     23134
     23127     23130     23133     23135     23127     23130     23133     23138
     23128     23127     23130     23131     23128     23127     23130     23132
     23128     23127     23130     23133     23129     23127     23130     23131
     23129     23127     23130     23132     23129     23127     23130     23133
     23130     23133     23135     23136     23130     23133     23135     23137
     23130     23133     23135     23138     23130     23133     23138     23135
     23130     23133     23138     23139     23130     23133     23138     23140
     23131     23130     23133     23134     23131     23130     23133     23135
     23131     23130     23133     23138     23132     23130     23133     23134
     23132     23130     23133     23135     23132     23130     23133     23138
     23133     23135     23138     23139     23133     23135     23138     23140
     23133     23138     23135     23136     23133     23138     23135     23137
     23133     23138     23140     23141     23133     23138     23140     23142
     23133     23138     23140     23143     23134     23133     23135     23136
     23134     23133     23135     23137     23134     23133     23135     23138
     23134     23133     23138     23135     23134     23133     23138     23139
     23134     23133     23138     23140     23135     23133     23138     23139
     23135     23133     23138     23140     23135     23138     23140     23141
     23135     23138     23140     23142     23135     23138     23140     23143
     23136     23135     23133     23138     23136     23135     23138     23139
     23136     23135     23138     23140     23137     23135     23133     23138
     23137     23135     23138     23139     23137     23135     23138     23140
     23138     23140     23143     23144     23138     23140     23143     23145
     23138     23140     23143     23146     23139     23138     23140     23141
     23139     23138     23140     23142     23139     23138     23140     23143
     23140     23143     23146     23147     23140     23143     23146     23148
     23140     23143     23146     23149     23141     23140     23143     23144
     23141     23140     23143     23145     23141     23140     23143     23146
     23142     23140     23143     23144     23142     23140     23143     23145
     23142     23140     23143     23146     23143     23146     23149     23150
     23143     23146     23149     23151     23143     23146     23149     23152
     23144     23143     23146     23147     23144     23143     23146     23148
     23144     23143     23146     23149     23145     23143     23146     23147
     23145     23143     23146     23148     23145     23143     23146     23149
     23146     23149     23152     23153     23146     23149     23152     23154
     23146     23149     23152     23155     23147     23146     23149     23150
     23147     23146     23149     23151     23147     23146     23149     23152
     23148     23146     23149     23150     23148     23146     23149     23151
     23148     23146     23149     23152     23149     23152     23155     23156
     23149     23152     23155     23157     23149     23152     23155     23158
     23150     23149     23152     23153     23150     23149     23152     23154
     23150     23149     23152     23155     23151     23149     23152     23153
     23151     23149     23152     23154     23151     23149     23152     23155
     23153     23152     23155     23156     23153     23152     23155     23157
     23153     23152     23155     23158     23154     23152     23155     23156
     23154     23152     23155     23157     23154     23152     23155     23158
     23159     23162     23165     23166     23159     23162     23165     23167
     23159     23162     23165     23168     23160     23159     23162     23163
     23160     23159     23162     23164     23160     23159     23162     23165
     23161     23159     23162     23163     23161     23159     23162     23164
     23161     23159     23162     23165     23162     23165     23168     23169
     23162     23165     23168     23170     23162     23165     23168     23171
     23163     23162     23165     23166     23163     23162     23165     23167
     23163     23162     23165     23168     23164     23162     23165     23166
     23164     23162     23165     23167     23164     23162     23165     23168
     23165     23168     23171     23172     23165     23168     23171     23173
     23165     23168     23171     23174     23166     23165     23168     23169
     23166     23165     23168     23170     23166     23165     23168     23171
     23167     23165     23168     23169     23167     23165     23168     23170
     23167     23165     23168     23171     23168     23171     23174     23175
     23168     23171     23174     23176     23168     23171     23174     23177
     23169     23168     23171     23172     23169     23168     23171     23173
     23169     23168     23171     23174     23170     23168     23171     23172
     23170     23168     23171     23173     23170     23168     23171     23174
     23171     23174     23177     23178     23171     23174     23177     23179
     23171     23174     23177     23180     23172     23171     23174     23175
     23172     23171     23174     23176     23172     23171     23174     23177
     23173     23171     23174     23175     23173     23171     23174     23176
     23173     23171     23174     23177     23174     23177     23180     23181
     23174     23177     23180     23182     23174     23177     23180     23183
     23175     23174     23177     23178     23175     23174     23177     23179
     23175     23174     23177     23180     23176     23174     23177     23178
     23176     23174     23177     23179     23176     23174     23177     23180
     23177     23180     23183     23184     23177     23180     23183     23185
     23177     23180     23183     23186     23178     23177     23180     23181
     23178     23177     23180     23182     23178     23177     23180     23183
     23179     23177     23180     23181     23179     23177     23180     23182
     23179     23177     23180     23183     23180     23183     23186     23187
     23180     23183     23186     23188     23180     23183     23186     23189
     23181     23180     23183     23184     23181     23180     23183     23185
     23181     23180     23183     23186     23182     23180     23183     23184
     23182     23180     23183     23185     23182     23180     23183     23186
     23183     23186     23189     23190     23183     23186     23189     23191
     23183     23186     23189     23192     23184     23183     23186     23187
     23184     23183     23186     23188     23184     23183     23186     23189
     23185     23183     23186     23187     23185     23183     23186     23188
     23185     23183     23186     23189     23186     23189     23192     23193
     23186     23189     23192     23194     23186     23189     23192     23195
     23187     23186     23189     23190     23187     23186     23189     23191
     23187     23186     23189     23192     23188     23186     23189     23190
     23188     23186     23189     23191     23188     23186     23189     23192
     23189     23192     23195     23196     23189     23192     23195     23197
     23189     23192     23195     23198     23190     23189     23192     23193
     23190     23189     23192     23194     23190     23189     23192     23195
     23191     23189     23192     23193     23191     23189     23192     23194
     23191     23189     23192     23195     23192     23195     23198     23199
     23192     23195     23198     23200     23192     23195     23198     23201
     23193     23192     23195     23196     23193     23192     23195     23197
     23193     23192     23195     23198     23194     23192     23195     23196
     23194     23192     23195     23197     23194     23192     23195     23198
     23196     23195     23198     23199     23196     23195     23198     23200
     23196     23195     23198     23201     23197     23195     23198     23199
     23197     23195     23198     23200     23197     23195     23198     23201
     23202     23207     23209     23210     23202     23207     23211     23212
     23202     23207     23211     23213     23202     23207     23211     23218
     23203     23202     23205     23206     23203     23202     23207     23208
     23203     23202     23207     23209     23203     23202     23207     23211
     23204     23202     23205     23206     23204     23202     23207     23208
     23204     23202     23207     23209     23204     23202     23207     23211
     23205     23202     23207     23208     23205     23202     23207     23209
     23205     23202     23207     23211     23206     23205     23202     23207
     23207     23211     23218     23214     23208     23207     23209     23210
     23208     23207     23211     23212     23208     23207     23211     23213
     23208     23207     23211     23218     23209     23207     23211     23212
     23209     23207     23211     23213     23209     23207     23211     23218
     23210     23209     23207     23211     23211     23218     23214     23215
     23211     23218     23214     23216     23211     23218     23214     23217
     23212     23211     23218     23214     23213     23211     23218     23214
     23214     23217     23219     23220     23214     23217     23219     23221
     23214     23217     23219     23222     23215     23214     23217     23219
     23216     23214     23217     23219     23217     23219     23222     23223
     23217     23219     23222     23224     23217     23219     23222     23230
     23218     23214     23217     23219     23219     23222     23224     23225
     23219     23222     23230     23231     23219     23222     23230     23232
     23219     23222     23230     23233     23220     23219     23222     23223
     23220     23219     23222     23224     23220     23219     23222     23230
     23221     23219     23222     23223     23221     23219     23222     23224
     23221     23219     23222     23230     23222     23224     23225     23226
     23222     23224     23225     23227     23222     23230     23233     23234
     23223     23222     23224     23225     23223     23222     23230     23231
     23223     23222     23230     23232     23223     23222     23230     23233
     23224     23222     23230     23231     23224     23222     23230     23232
     23224     23222     23230     23233     23224     23225     23227     23228
     23224     23225     23227     23229     23224     23225     23227     23239
     23225     23224     23222     23230     23225     23227     23239     23240
     23225     23227     23239     23241     23225     23227     23239     23242
     23226     23225     23227     23228     23226     23225     23227     23229
     23226     23225     23227     23239     23227     23239     23242     23243
     23227     23239     23242     23244     23227     23239     23242     23245
     23228     23227     23239     23240     23228     23227     23239     23241
     23228     23227     23239     23242     23229     23227     23239     23240
     23229     23227     23239     23241     23229     23227     23239     23242
     23230     23233     23234     23235     23230     23233     23234     23236
     23231     23230     23233     23234     23232     23230     23233     23234
     23233     23234     23236     23237     23233     23234     23236     23238
     23233     23234     23236     23283     23234     23236     23283     23284
     23234     23236     23283     23285     23234     23236     23283     23286
     23235     23234     23236     23237     23235     23234     23236     23238
     23235     23234     23236     23283     23236     23283     23286     23287
     23236     23283     23286     23288     23236     23283     23286     23289
     23237     23236     23283     23284     23237     23236     23283     23285
     23237     23236     23283     23286     23238     23236     23283     23284
     23238     23236     23283     23285     23238     23236     23283     23286
     23239     23242     23245     23246     23239     23242     23245     23247
     23239     23242     23245     23248     23240     23239     23242     23243
     23240     23239     23242     23244     23240     23239     23242     23245
     23241     23239     23242     23243     23241     23239     23242     23244
     23241     23239     23242     23245     23242     23245     23248     23249
     23242     23245     23248     23250     23242     23245     23248     23251
     23243     23242     23245     23246     23243     23242     23245     23247
     23243     23242     23245     23248     23244     23242     23245     23246
     23244     23242     23245     23247     23244     23242     23245     23248
     23245     23248     23251     23252     23245     23248     23251     23253
     23245     23248     23251     23254     23246     23245     23248     23249
     23246     23245     23248     23250     23246     23245     23248     23251
     23247     23245     23248     23249     23247     23245     23248     23250
     23247     23245     23248     23251     23248     23251     23254     23255
     23248     23251     23254     23256     23248     23251     23254     23257
     23249     23248     23251     23252     23249     23248     23251     23253
     23249     23248     23251     23254     23250     23248     23251     23252
     23250     23248     23251     23253     23250     23248     23251     23254
     23251     23254     23257     23258     23251     23254     23257     23259
     23251     23254     23257     23262     23252     23251     23254     23255
     23252     23251     23254     23256     23252     23251     23254     23257
     23253     23251     23254     23255     23253     23251     23254     23256
     23253     23251     23254     23257     23254     23257     23259     23260
     23254     23257     23259     23261     23254     23257     23259     23262
     23254     23257     23262     23259     23254     23257     23262     23263
     23254     23257     23262     23264     23255     23254     23257     23258
     23255     23254     23257     23259     23255     23254     23257     23262
     23256     23254     23257     23258     23256     23254     23257     23259
     23256     23254     23257     23262     23257     23259     23262     23263
     23257     23259     23262     23264     23257     23262     23259     23260
     23257     23262     23259     23261     23257     23262     23264     23265
     23257     23262     23264     23266     23257     23262     23264     23267
     23258     23257     23259     23260     23258     23257     23259     23261
     23258     23257     23259     23262     23258     23257     23262     23259
     23258     23257     23262     23263     23258     23257     23262     23264
     23259     23257     23262     23263     23259     23257     23262     23264
     23259     23262     23264     23265     23259     23262     23264     23266
     23259     23262     23264     23267     23260     23259     23257     23262
     23260     23259     23262     23263     23260     23259     23262     23264
     23261     23259     23257     23262     23261     23259     23262     23263
     23261     23259     23262     23264     23262     23264     23267     23268
     23262     23264     23267     23269     23262     23264     23267     23270
     23263     23262     23264     23265     23263     23262     23264     23266
     23263     23262     23264     23267     23264     23267     23270     23271
     23264     23267     23270     23272     23264     23267     23270     23273
     23265     23264     23267     23268     23265     23264     23267     23269
     23265     23264     23267     23270     23266     23264     23267     23268
     23266     23264     23267     23269     23266     23264     23267     23270
     23267     23270     23273     23274     23267     23270     23273     23275
     23267     23270     23273     23276     23268     23267     23270     23271
     23268     23267     23270     23272     23268     23267     23270     23273
     23269     23267     23270     23271     23269     23267     23270     23272
     23269     23267     23270     23273     23270     23273     23276     23277
     23270     23273     23276     23278     23270     23273     23276     23279
     23271     23270     23273     23274     23271     23270     23273     23275
     23271     23270     23273     23276     23272     23270     23273     23274
     23272     23270     23273     23275     23272     23270     23273     23276
     23273     23276     23279     23280     23273     23276     23279     23281
     23273     23276     23279     23282     23274     23273     23276     23277
     23274     23273     23276     23278     23274     23273     23276     23279
     23275     23273     23276     23277     23275     23273     23276     23278
     23275     23273     23276     23279     23277     23276     23279     23280
     23277     23276     23279     23281     23277     23276     23279     23282
     23278     23276     23279     23280     23278     23276     23279     23281
     23278     23276     23279     23282     23283     23286     23289     23290
     23283     23286     23289     23291     23283     23286     23289     23292
     23284     23283     23286     23287     23284     23283     23286     23288
     23284     23283     23286     23289     23285     23283     23286     23287
     23285     23283     23286     23288     23285     23283     23286     23289
     23286     23289     23292     23293     23286     23289     23292     23294
     23286     23289     23292     23295     23287     23286     23289     23290
     23287     23286     23289     23291     23287     23286     23289     23292
     23288     23286     23289     23290     23288     23286     23289     23291
     23288     23286     23289     23292     23289     23292     23295     23296
     23289     23292     23295     23297     23289     23292     23295     23298
     23290     23289     23292     23293     23290     23289     23292     23294
     23290     23289     23292     23295     23291     23289     23292     23293
     23291     23289     23292     23294     23291     23289     23292     23295
     23292     23295     23298     23299     23292     23295     23298     23300
     23292     23295     23298     23301     23293     23292     23295     23296
     23293     23292     23295     23297     23293     23292     23295     23298
     23294     23292     23295     23296     23294     23292     23295     23297
     23294     23292     23295     23298     23295     23298     23301     23302
     23295     23298     23301     23303     23295     23298     23301     23304
     23296     23295     23298     23299     23296     23295     23298     23300
     23296     23295     23298     23301     23297     23295     23298     23299
     23297     23295     23298     23300     23297     23295     23298     23301
     23298     23301     23304     23305     23298     23301     23304     23306
     23298     23301     23304     23307     23299     23298     23301     23302
     23299     23298     23301     23303     23299     23298     23301     23304
     23300     23298     23301     23302     23300     23298     23301     23303
     23300     23298     23301     23304     23301     23304     23307     23308
     23301     23304     23307     23309     23301     23304     23307     23310
     23302     23301     23304     23305     23302     23301     23304     23306
     23302     23301     23304     23307     23303     23301     23304     23305
     23303     23301     23304     23306     23303     23301     23304     23307
     23304     23307     23310     23311     23304     23307     23310     23312
     23304     23307     23310     23313     23305     23304     23307     23308
     23305     23304     23307     23309     23305     23304     23307     23310
     23306     23304     23307     23308     23306     23304     23307     23309
     23306     23304     23307     23310     23307     23310     23313     23314
     23307     23310     23313     23315     23307     23310     23313     23316
     23308     23307     23310     23311     23308     23307     23310     23312
     23308     23307     23310     23313     23309     23307     23310     23311
     23309     23307     23310     23312     23309     23307     23310     23313
     23310     23313     23316     23317     23310     23313     23316     23318
     23310     23313     23316     23319     23311     23310     23313     23314
     23311     23310     23313     23315     23311     23310     23313     23316
     23312     23310     23313     23314     23312     23310     23313     23315
     23312     23310     23313     23316     23313     23316     23319     23320
     23313     23316     23319     23321     23313     23316     23319     23322
     23314     23313     23316     23317     23314     23313     23316     23318
     23314     23313     23316     23319     23315     23313     23316     23317
     23315     23313     23316     23318     23315     23313     23316     23319
     23316     23319     23322     23323     23316     23319     23322     23324
     23316     23319     23322     23325     23317     23316     23319     23320
     23317     23316     23319     23321     23317     23316     23319     23322
     23318     23316     23319     23320     23318     23316     23319     23321
     23318     23316     23319     23322     23320     23319     23322     23323
     23320     23319     23322     23324     23320     23319     23322     23325
     23321     23319     23322     23323     23321     23319     23322     23324
     23321     23319     23322     23325     23326     23331     23333     23334
     23326     23331     23335     23336     23326     23331     23335     23337
     23326     23331     23335     23342     23327     23326     23329     23330
     23327     23326     23331     23332     23327     23326     23331     23333
     23327     23326     23331     23335     23328     23326     23329     23330
     23328     23326     23331     23332     23328     23326     23331     23333
     23328     23326     23331     23335     23329     23326     23331     23332
     23329     23326     23331     23333     23329     23326     23331     23335
     23330     23329     23326     23331     23331     23335     23342     23338
     23332     23331     23333     23334     23332     23331     23335     23336
     23332     23331     23335     23337     23332     23331     23335     23342
     23333     23331     23335     23336     23333     23331     23335     23337
     23333     23331     23335     23342     23334     23333     23331     23335
     23335     23342     23338     23339     23335     23342     23338     23340
     23335     23342     23338     23341     23336     23335     23342     23338
     23337     23335     23342     23338     23338     23341     23343     23344
     23338     23341     23343     23345     23338     23341     23343     23346
     23339     23338     23341     23343     23340     23338     23341     23343
     23341     23343     23346     23347     23341     23343     23346     23348
     23341     23343     23346     23354     23342     23338     23341     23343
     23343     23346     23348     23349     23343     23346     23354     23355
     23343     23346     23354     23356     23343     23346     23354     23357
     23344     23343     23346     23347     23344     23343     23346     23348
     23344     23343     23346     23354     23345     23343     23346     23347
     23345     23343     23346     23348     23345     23343     23346     23354
     23346     23348     23349     23350     23346     23348     23349     23351
     23346     23354     23357     23358     23347     23346     23348     23349
     23347     23346     23354     23355     23347     23346     23354     23356
     23347     23346     23354     23357     23348     23346     23354     23355
     23348     23346     23354     23356     23348     23346     23354     23357
     23348     23349     23351     23352     23348     23349     23351     23353
     23348     23349     23351     23363     23349     23348     23346     23354
     23349     23351     23363     23364     23349     23351     23363     23365
     23349     23351     23363     23366     23350     23349     23351     23352
     23350     23349     23351     23353     23350     23349     23351     23363
     23351     23363     23366     23367     23351     23363     23366     23368
     23351     23363     23366     23369     23352     23351     23363     23364
     23352     23351     23363     23365     23352     23351     23363     23366
     23353     23351     23363     23364     23353     23351     23363     23365
     23353     23351     23363     23366     23354     23357     23358     23359
     23354     23357     23358     23360     23355     23354     23357     23358
     23356     23354     23357     23358     23357     23358     23360     23361
     23357     23358     23360     23362     23357     23358     23360     23404
     23358     23360     23404     23405     23358     23360     23404     23406
     23358     23360     23404     23407     23359     23358     23360     23361
     23359     23358     23360     23362     23359     23358     23360     23404
     23360     23404     23407     23408     23360     23404     23407     23409
     23360     23404     23407     23410     23361     23360     23404     23405
     23361     23360     23404     23406     23361     23360     23404     23407
     23362     23360     23404     23405     23362     23360     23404     23406
     23362     23360     23404     23407     23363     23366     23369     23370
     23363     23366     23369     23371     23363     23366     23369     23372
     23364     23363     23366     23367     23364     23363     23366     23368
     23364     23363     23366     23369     23365     23363     23366     23367
     23365     23363     23366     23368     23365     23363     23366     23369
     23366     23369     23372     23373     23366     23369     23372     23374
     23366     23369     23372     23375     23367     23366     23369     23370
     23367     23366     23369     23371     23367     23366     23369     23372
     23368     23366     23369     23370     23368     23366     23369     23371
     23368     23366     23369     23372     23369     23372     23375     23376
     23369     23372     23375     23377     23369     23372     23375     23378
     23370     23369     23372     23373     23370     23369     23372     23374
     23370     23369     23372     23375     23371     23369     23372     23373
     23371     23369     23372     23374     23371     23369     23372     23375
     23372     23375     23378     23379     23372     23375     23378     23380
     23372     23375     23378     23381     23373     23372     23375     23376
     23373     23372     23375     23377     23373     23372     23375     23378
     23374     23372     23375     23376     23374     23372     23375     23377
     23374     23372     23375     23378     23375     23378     23381     23382
     23375     23378     23381     23383     23376     23375     23378     23379
     23376     23375     23378     23380     23376     23375     23378     23381
     23377     23375     23378     23379     23377     23375     23378     23380
     23377     23375     23378     23381     23378     23381     23383     23384
     23378     23381     23383     23385     23379     23378     23381     23382
     23379     23378     23381     23383     23380     23378     23381     23382
     23380     23378     23381     23383     23381     23383     23385     23386
     23381     23383     23385     23387     23381     23383     23385     23388
     23382     23381     23383     23384     23382     23381     23383     23385
     23383     23385     23388     23389     23383     23385     23388     23390
     23383     23385     23388     23391     23384     23383     23385     23386
     23384     23383     23385     23387     23384     23383     23385     23388
     23385     23388     23391     23392     23385     23388     23391     23393
     23385     23388     23391     23394     23386     23385     23388     23389
     23386     23385     23388     23390     23386     23385     23388     23391
     23387     23385     23388     23389     23387     23385     23388     23390
     23387     23385     23388     23391     23388     23391     23394     23395
     23388     23391     23394     23396     23388     23391     23394     23397
     23389     23388     23391     23392     23389     23388     23391     23393
     23389     23388     23391     23394     23390     23388     23391     23392
     23390     23388     23391     23393     23390     23388     23391     23394
     23391     23394     23397     23398     23391     23394     23397     23399
     23391     23394     23397     23400     23392     23391     23394     23395
     23392     23391     23394     23396     23392     23391     23394     23397
     23393     23391     23394     23395     23393     23391     23394     23396
     23393     23391     23394     23397     23394     23397     23400     23401
     23394     23397     23400     23402     23394     23397     23400     23403
     23395     23394     23397     23398     23395     23394     23397     23399
     23395     23394     23397     23400     23396     23394     23397     23398
     23396     23394     23397     23399     23396     23394     23397     23400
     23398     23397     23400     23401     23398     23397     23400     23402
     23398     23397     23400     23403     23399     23397     23400     23401
     23399     23397     23400     23402     23399     23397     23400     23403
     23404     23407     23410     23411     23404     23407     23410     23412
     23404     23407     23410     23413     23405     23404     23407     23408
     23405     23404     23407     23409     23405     23404     23407     23410
     23406     23404     23407     23408     23406     23404     23407     23409
     23406     23404     23407     23410     23407     23410     23413     23414
     23407     23410     23413     23415     23407     23410     23413     23416
     23408     23407     23410     23411     23408     23407     23410     23412
     23408     23407     23410     23413     23409     23407     23410     23411
     23409     23407     23410     23412     23409     23407     23410     23413
     23410     23413     23416     23417     23410     23413     23416     23418
     23410     23413     23416     23419     23411     23410     23413     23414
     23411     23410     23413     23415     23411     23410     23413     23416
     23412     23410     23413     23414     23412     23410     23413     23415
     23412     23410     23413     23416     23413     23416     23419     23420
     23413     23416     23419     23421     23413     23416     23419     23422
     23414     23413     23416     23417     23414     23413     23416     23418
     23414     23413     23416     23419     23415     23413     23416     23417
     23415     23413     23416     23418     23415     23413     23416     23419
     23416     23419     23422     23423     23416     23419     23422     23424
     23416     23419     23422     23425     23417     23416     23419     23420
     23417     23416     23419     23421     23417     23416     23419     23422
     23418     23416     23419     23420     23418     23416     23419     23421
     23418     23416     23419     23422     23419     23422     23425     23426
     23419     23422     23425     23427     23419     23422     23425     23428
     23420     23419     23422     23423     23420     23419     23422     23424
     23420     23419     23422     23425     23421     23419     23422     23423
     23421     23419     23422     23424     23421     23419     23422     23425
     23422     23425     23428     23429     23422     23425     23428     23430
     23422     23425     23428     23431     23423     23422     23425     23426
     23423     23422     23425     23427     23423     23422     23425     23428
     23424     23422     23425     23426     23424     23422     23425     23427
     23424     23422     23425     23428     23425     23428     23431     23432
     23425     23428     23431     23433     23425     23428     23431     23434
     23426     23425     23428     23429     23426     23425     23428     23430
     23426     23425     23428     23431     23427     23425     23428     23429
     23427     23425     23428     23430     23427     23425     23428     23431
     23428     23431     23434     23435     23428     23431     23434     23436
     23428     23431     23434     23437     23429     23428     23431     23432
     23429     23428     23431     23433     23429     23428     23431     23434
     23430     23428     23431     23432     23430     23428     23431     23433
     23430     23428     23431     23434     23431     23434     23437     23438
     23431     23434     23437     23439     23431     23434     23437     23440
     23432     23431     23434     23435     23432     23431     23434     23436
     23432     23431     23434     23437     23433     23431     23434     23435
     23433     23431     23434     23436     23433     23431     23434     23437
     23434     23437     23440     23441     23434     23437     23440     23442
     23434     23437     23440     23443     23435     23434     23437     23438
     23435     23434     23437     23439     23435     23434     23437     23440
     23436     23434     23437     23438     23436     23434     23437     23439
     23436     23434     23437     23440     23437     23440     23443     23444
     23437     23440     23443     23445     23437     23440     23443     23446
     23438     23437     23440     23441     23438     23437     23440     23442
     23438     23437     23440     23443     23439     23437     23440     23441
     23439     23437     23440     23442     23439     23437     23440     23443
     23441     23440     23443     23444     23441     23440     23443     23445
     23441     23440     23443     23446     23442     23440     23443     23444
     23442     23440     23443     23445     23442     23440     23443     23446
     23447     23451     23454     23455     23447     23451     23454     23456
     23447     23451     23454     23461     23448     23447     23451     23452
     23448     23447     23451     23453     23448     23447     23451     23454
     23449     23447     23451     23452     23449     23447     23451     23453
     23449     23447     23451     23454     23450     23447     23451     23452
     23450     23447     23451     23453     23450     23447     23451     23454
     23451     23454     23461     23457     23452     23451     23454     23455
     23452     23451     23454     23456     23452     23451     23454     23461
     23453     23451     23454     23455     23453     23451     23454     23456
     23453     23451     23454     23461     23454     23461     23457     23458
     23454     23461     23457     23459     23454     23461     23457     23460
     23455     23454     23461     23457     23456     23454     23461     23457
     23457     23460     23462     23463     23457     23460     23462     23464
     23457     23460     23462     23465     23458     23457     23460     23462
     23459     23457     23460     23462     23460     23462     23465     23466
     23460     23462     23465     23467     23460     23462     23465     23473
     23461     23457     23460     23462     23462     23465     23467     23468
     23462     23465     23473     23474     23462     23465     23473     23475
     23462     23465     23473     23476     23463     23462     23465     23466
     23463     23462     23465     23467     23463     23462     23465     23473
     23464     23462     23465     23466     23464     23462     23465     23467
     23464     23462     23465     23473     23465     23467     23468     23469
     23465     23467     23468     23470     23465     23473     23476     23477
     23466     23465     23467     23468     23466     23465     23473     23474
     23466     23465     23473     23475     23466     23465     23473     23476
     23467     23465     23473     23474     23467     23465     23473     23475
     23467     23465     23473     23476     23467     23468     23470     23471
     23467     23468     23470     23472     23467     23468     23470     23482
     23468     23467     23465     23473     23468     23470     23482     23483
     23468     23470     23482     23484     23468     23470     23482     23485
     23469     23468     23470     23471     23469     23468     23470     23472
     23469     23468     23470     23482     23470     23482     23485     23486
     23470     23482     23485     23487     23470     23482     23485     23488
     23471     23470     23482     23483     23471     23470     23482     23484
     23471     23470     23482     23485     23472     23470     23482     23483
     23472     23470     23482     23484     23472     23470     23482     23485
     23473     23476     23477     23478     23473     23476     23477     23479
     23474     23473     23476     23477     23475     23473     23476     23477
     23476     23477     23479     23480     23476     23477     23479     23481
     23476     23477     23479     23529     23477     23479     23529     23530
     23477     23479     23529     23531     23477     23479     23529     23532
     23478     23477     23479     23480     23478     23477     23479     23481
     23478     23477     23479     23529     23479     23529     23532     23533
     23479     23529     23532     23534     23479     23529     23532     23535
     23480     23479     23529     23530     23480     23479     23529     23531
     23480     23479     23529     23532     23481     23479     23529     23530
     23481     23479     23529     23531     23481     23479     23529     23532
     23482     23485     23488     23489     23482     23485     23488     23490
     23482     23485     23488     23491     23483     23482     23485     23486
     23483     23482     23485     23487     23483     23482     23485     23488
     23484     23482     23485     23486     23484     23482     23485     23487
     23484     23482     23485     23488     23485     23488     23491     23492
     23485     23488     23491     23493     23485     23488     23491     23494
     23486     23485     23488     23489     23486     23485     23488     23490
     23486     23485     23488     23491     23487     23485     23488     23489
     23487     23485     23488     23490     23487     23485     23488     23491
     23488     23491     23494     23495     23488     23491     23494     23496
     23488     23491     23494     23497     23489     23488     23491     23492
     23489     23488     23491     23493     23489     23488     23491     23494
     23490     23488     23491     23492     23490     23488     23491     23493
     23490     23488     23491     23494     23491     23494     23497     23498
     23491     23494     23497     23499     23491     23494     23497     23500
     23492     23491     23494     23495     23492     23491     23494     23496
     23492     23491     23494     23497     23493     23491     23494     23495
     23493     23491     23494     23496     23493     23491     23494     23497
     23494     23497     23500     23501     23494     23497     23500     23502
     23495     23494     23497     23498     23495     23494     23497     23499
     23495     23494     23497     23500     23496     23494     23497     23498
     23496     23494     23497     23499     23496     23494     23497     23500
     23497     23500     23502     23503     23497     23500     23502     23504
     23498     23497     23500     23501     23498     23497     23500     23502
     23499     23497     23500     23501     23499     23497     23500     23502
     23500     23502     23504     23505     23500     23502     23504     23506
     23500     23502     23504     23507     23501     23500     23502     23503
     23501     23500     23502     23504     23502     23504     23507     23508
     23502     23504     23507     23509     23502     23504     23507     23510
     23503     23502     23504     23505     23503     23502     23504     23506
     23503     23502     23504     23507     23504     23507     23510     23511
     23504     23507     23510     23512     23504     23507     23510     23513
     23505     23504     23507     23508     23505     23504     23507     23509
     23505     23504     23507     23510     23506     23504     23507     23508
     23506     23504     23507     23509     23506     23504     23507     23510
     23507     23510     23513     23514     23507     23510     23513     23515
     23507     23510     23513     23516     23508     23507     23510     23511
     23508     23507     23510     23512     23508     23507     23510     23513
     23509     23507     23510     23511     23509     23507     23510     23512
     23509     23507     23510     23513     23510     23513     23516     23517
     23510     23513     23516     23518     23510     23513     23516     23519
     23511     23510     23513     23514     23511     23510     23513     23515
     23511     23510     23513     23516     23512     23510     23513     23514
     23512     23510     23513     23515     23512     23510     23513     23516
     23513     23516     23519     23520     23513     23516     23519     23521
     23513     23516     23519     23522     23514     23513     23516     23517
     23514     23513     23516     23518     23514     23513     23516     23519
     23515     23513     23516     23517     23515     23513     23516     23518
     23515     23513     23516     23519     23516     23519     23522     23523
     23516     23519     23522     23524     23516     23519     23522     23525
     23517     23516     23519     23520     23517     23516     23519     23521
     23517     23516     23519     23522     23518     23516     23519     23520
     23518     23516     23519     23521     23518     23516     23519     23522
     23519     23522     23525     23526     23519     23522     23525     23527
     23519     23522     23525     23528     23520     23519     23522     23523
     23520     23519     23522     23524     23520     23519     23522     23525
     23521     23519     23522     23523     23521     23519     23522     23524
     23521     23519     23522     23525     23523     23522     23525     23526
     23523     23522     23525     23527     23523     23522     23525     23528
     23524     23522     23525     23526     23524     23522     23525     23527
     23524     23522     23525     23528     23529     23532     23535     23536
     23529     23532     23535     23537     23529     23532     23535     23538
     23530     23529     23532     23533     23530     23529     23532     23534
     23530     23529     23532     23535     23531     23529     23532     23533
     23531     23529     23532     23534     23531     23529     23532     23535
     23532     23535     23538     23539     23532     23535     23538     23540
     23532     23535     23538     23541     23533     23532     23535     23536
     23533     23532     23535     23537     23533     23532     23535     23538
     23534     23532     23535     23536     23534     23532     23535     23537
     23534     23532     23535     23538     23535     23538     23541     23542
     23535     23538     23541     23543     23535     23538     23541     23544
     23536     23535     23538     23539     23536     23535     23538     23540
     23536     23535     23538     23541     23537     23535     23538     23539
     23537     23535     23538     23540     23537     23535     23538     23541
     23538     23541     23544     23545     23538     23541     23544     23546
     23538     23541     23544     23547     23539     23538     23541     23542
     23539     23538     23541     23543     23539     23538     23541     23544
     23540     23538     23541     23542     23540     23538     23541     23543
     23540     23538     23541     23544     23541     23544     23547     23548
     23541     23544     23547     23549     23541     23544     23547     23550
     23542     23541     23544     23545     23542     23541     23544     23546
     23542     23541     23544     23547     23543     23541     23544     23545
     23543     23541     23544     23546     23543     23541     23544     23547
     23544     23547     23550     23551     23544     23547     23550     23552
     23544     23547     23550     23553     23545     23544     23547     23548
     23545     23544     23547     23549     23545     23544     23547     23550
     23546     23544     23547     23548     23546     23544     23547     23549
     23546     23544     23547     23550     23547     23550     23553     23554
     23547     23550     23553     23555     23547     23550     23553     23556
     23548     23547     23550     23551     23548     23547     23550     23552
     23548     23547     23550     23553     23549     23547     23550     23551
     23549     23547     23550     23552     23549     23547     23550     23553
     23550     23553     23556     23557     23550     23553     23556     23558
     23550     23553     23556     23559     23551     23550     23553     23554
     23551     23550     23553     23555     23551     23550     23553     23556
     23552     23550     23553     23554     23552     23550     23553     23555
     23552     23550     23553     23556     23553     23556     23559     23560
     23553     23556     23559     23561     23553     23556     23559     23562
     23554     23553     23556     23557     23554     23553     23556     23558
     23554     23553     23556     23559     23555     23553     23556     23557
     23555     23553     23556     23558     23555     23553     23556     23559
     23556     23559     23562     23563     23556     23559     23562     23564
     23556     23559     23562     23565     23557     23556     23559     23560
     23557     23556     23559     23561     23557     23556     23559     23562
     23558     23556     23559     23560     23558     23556     23559     23561
     23558     23556     23559     23562     23559     23562     23565     23566
     23559     23562     23565     23567     23559     23562     23565     23568
     23560     23559     23562     23563     23560     23559     23562     23564
     23560     23559     23562     23565     23561     23559     23562     23563
     23561     23559     23562     23564     23561     23559     23562     23565
     23562     23565     23568     23569     23562     23565     23568     23570
     23562     23565     23568     23571     23563     23562     23565     23566
     23563     23562     23565     23567     23563     23562     23565     23568
     23564     23562     23565     23566     23564     23562     23565     23567
     23564     23562     23565     23568     23566     23565     23568     23569
     23566     23565     23568     23570     23566     23565     23568     23571
     23567     23565     23568     23569     23567     23565     23568     23570
     23567     23565     23568     23571     23572     23576     23579     23580
     23572     23576     23579     23581     23572     23576     23579     23586
     23573     23572     23576     23577     23573     23572     23576     23578
     23573     23572     23576     23579     23574     23572     23576     23577
     23574     23572     23576     23578     23574     23572     23576     23579
     23575     23572     23576     23577     23575     23572     23576     23578
     23575     23572     23576     23579     23576     23579     23586     23582
     23577     23576     23579     23580     23577     23576     23579     23581
     23577     23576     23579     23586     23578     23576     23579     23580
     23578     23576     23579     23581     23578     23576     23579     23586
     23579     23586     23582     23583     23579     23586     23582     23584
     23579     23586     23582     23585     23580     23579     23586     23582
     23581     23579     23586     23582     23582     23585     23587     23588
     23582     23585     23587     23589     23582     23585     23587     23590
     23583     23582     23585     23587     23584     23582     23585     23587
     23585     23587     23590     23591     23585     23587     23590     23592
     23585     23587     23590     23598     23586     23582     23585     23587
     23587     23590     23592     23593     23587     23590     23598     23599
     23587     23590     23598     23600     23587     23590     23598     23601
     23588     23587     23590     23591     23588     23587     23590     23592
     23588     23587     23590     23598     23589     23587     23590     23591
     23589     23587     23590     23592     23589     23587     23590     23598
     23590     23592     23593     23594     23590     23592     23593     23595
     23590     23598     23601     23602     23591     23590     23592     23593
     23591     23590     23598     23599     23591     23590     23598     23600
     23591     23590     23598     23601     23592     23590     23598     23599
     23592     23590     23598     23600     23592     23590     23598     23601
     23592     23593     23595     23596     23592     23593     23595     23597
     23592     23593     23595     23607     23593     23592     23590     23598
     23593     23595     23607     23608     23593     23595     23607     23609
     23593     23595     23607     23610     23594     23593     23595     23596
     23594     23593     23595     23597     23594     23593     23595     23607
     23595     23607     23610     23611     23595     23607     23610     23612
     23595     23607     23610     23613     23596     23595     23607     23608
     23596     23595     23607     23609     23596     23595     23607     23610
     23597     23595     23607     23608     23597     23595     23607     23609
     23597     23595     23607     23610     23598     23601     23602     23603
     23598     23601     23602     23604     23599     23598     23601     23602
     23600     23598     23601     23602     23601     23602     23604     23605
     23601     23602     23604     23606     23601     23602     23604     23651
     23602     23604     23651     23652     23602     23604     23651     23653
     23602     23604     23651     23654     23603     23602     23604     23605
     23603     23602     23604     23606     23603     23602     23604     23651
     23604     23651     23654     23655     23604     23651     23654     23656
     23604     23651     23654     23657     23605     23604     23651     23652
     23605     23604     23651     23653     23605     23604     23651     23654
     23606     23604     23651     23652     23606     23604     23651     23653
     23606     23604     23651     23654     23607     23610     23613     23614
     23607     23610     23613     23615     23607     23610     23613     23616
     23608     23607     23610     23611     23608     23607     23610     23612
     23608     23607     23610     23613     23609     23607     23610     23611
     23609     23607     23610     23612     23609     23607     23610     23613
     23610     23613     23616     23617     23610     23613     23616     23618
     23610     23613     23616     23619     23611     23610     23613     23614
     23611     23610     23613     23615     23611     23610     23613     23616
     23612     23610     23613     23614     23612     23610     23613     23615
     23612     23610     23613     23616     23613     23616     23619     23620
     23613     23616     23619     23621     23613     23616     23619     23622
     23614     23613     23616     23617     23614     23613     23616     23618
     23614     23613     23616     23619     23615     23613     23616     23617
     23615     23613     23616     23618     23615     23613     23616     23619
     23616     23619     23622     23623     23616     23619     23622     23624
     23616     23619     23622     23625     23617     23616     23619     23620
     23617     23616     23619     23621     23617     23616     23619     23622
     23618     23616     23619     23620     23618     23616     23619     23621
     23618     23616     23619     23622     23619     23622     23625     23626
     23619     23622     23625     23627     23619     23622     23625     23630
     23620     23619     23622     23623     23620     23619     23622     23624
     23620     23619     23622     23625     23621     23619     23622     23623
     23621     23619     23622     23624     23621     23619     23622     23625
     23622     23625     23627     23628     23622     23625     23627     23629
     23622     23625     23627     23630     23622     23625     23630     23627
     23622     23625     23630     23631     23622     23625     23630     23632
     23623     23622     23625     23626     23623     23622     23625     23627
     23623     23622     23625     23630     23624     23622     23625     23626
     23624     23622     23625     23627     23624     23622     23625     23630
     23625     23627     23630     23631     23625     23627     23630     23632
     23625     23630     23627     23628     23625     23630     23627     23629
     23625     23630     23632     23633     23625     23630     23632     23634
     23625     23630     23632     23635     23626     23625     23627     23628
     23626     23625     23627     23629     23626     23625     23627     23630
     23626     23625     23630     23627     23626     23625     23630     23631
     23626     23625     23630     23632     23627     23625     23630     23631
     23627     23625     23630     23632     23627     23630     23632     23633
     23627     23630     23632     23634     23627     23630     23632     23635
     23628     23627     23625     23630     23628     23627     23630     23631
     23628     23627     23630     23632     23629     23627     23625     23630
     23629     23627     23630     23631     23629     23627     23630     23632
     23630     23632     23635     23636     23630     23632     23635     23637
     23630     23632     23635     23638     23631     23630     23632     23633
     23631     23630     23632     23634     23631     23630     23632     23635
     23632     23635     23638     23639     23632     23635     23638     23640
     23632     23635     23638     23641     23633     23632     23635     23636
     23633     23632     23635     23637     23633     23632     23635     23638
     23634     23632     23635     23636     23634     23632     23635     23637
     23634     23632     23635     23638     23635     23638     23641     23642
     23635     23638     23641     23643     23635     23638     23641     23644
     23636     23635     23638     23639     23636     23635     23638     23640
     23636     23635     23638     23641     23637     23635     23638     23639
     23637     23635     23638     23640     23637     23635     23638     23641
     23638     23641     23644     23645     23638     23641     23644     23646
     23638     23641     23644     23647     23639     23638     23641     23642
     23639     23638     23641     23643     23639     23638     23641     23644
     23640     23638     23641     23642     23640     23638     23641     23643
     23640     23638     23641     23644     23641     23644     23647     23648
     23641     23644     23647     23649     23641     23644     23647     23650
     23642     23641     23644     23645     23642     23641     23644     23646
     23642     23641     23644     23647     23643     23641     23644     23645
     23643     23641     23644     23646     23643     23641     23644     23647
     23645     23644     23647     23648     23645     23644     23647     23649
     23645     23644     23647     23650     23646     23644     23647     23648
     23646     23644     23647     23649     23646     23644     23647     23650
     23651     23654     23657     23658     23651     23654     23657     23659
     23651     23654     23657     23660     23652     23651     23654     23655
     23652     23651     23654     23656     23652     23651     23654     23657
     23653     23651     23654     23655     23653     23651     23654     23656
     23653     23651     23654     23657     23654     23657     23660     23661
     23654     23657     23660     23662     23654     23657     23660     23663
     23655     23654     23657     23658     23655     23654     23657     23659
     23655     23654     23657     23660     23656     23654     23657     23658
     23656     23654     23657     23659     23656     23654     23657     23660
     23657     23660     23663     23664     23657     23660     23663     23665
     23657     23660     23663     23666     23658     23657     23660     23661
     23658     23657     23660     23662     23658     23657     23660     23663
     23659     23657     23660     23661     23659     23657     23660     23662
     23659     23657     23660     23663     23660     23663     23666     23667
     23660     23663     23666     23668     23660     23663     23666     23669
     23661     23660     23663     23664     23661     23660     23663     23665
     23661     23660     23663     23666     23662     23660     23663     23664
     23662     23660     23663     23665     23662     23660     23663     23666
     23663     23666     23669     23670     23663     23666     23669     23671
     23663     23666     23669     23672     23664     23663     23666     23667
     23664     23663     23666     23668     23664     23663     23666     23669
     23665     23663     23666     23667     23665     23663     23666     23668
     23665     23663     23666     23669     23666     23669     23672     23673
     23666     23669     23672     23674     23666     23669     23672     23675
     23667     23666     23669     23670     23667     23666     23669     23671
     23667     23666     23669     23672     23668     23666     23669     23670
     23668     23666     23669     23671     23668     23666     23669     23672
     23669     23672     23675     23676     23669     23672     23675     23677
     23669     23672     23675     23678     23670     23669     23672     23673
     23670     23669     23672     23674     23670     23669     23672     23675
     23671     23669     23672     23673     23671     23669     23672     23674
     23671     23669     23672     23675     23672     23675     23678     23679
     23672     23675     23678     23680     23672     23675     23678     23681
     23673     23672     23675     23676     23673     23672     23675     23677
     23673     23672     23675     23678     23674     23672     23675     23676
     23674     23672     23675     23677     23674     23672     23675     23678
     23675     23678     23681     23682     23675     23678     23681     23683
     23675     23678     23681     23684     23676     23675     23678     23679
     23676     23675     23678     23680     23676     23675     23678     23681
     23677     23675     23678     23679     23677     23675     23678     23680
     23677     23675     23678     23681     23678     23681     23684     23685
     23678     23681     23684     23686     23678     23681     23684     23687
     23679     23678     23681     23682     23679     23678     23681     23683
     23679     23678     23681     23684     23680     23678     23681     23682
     23680     23678     23681     23683     23680     23678     23681     23684
     23681     23684     23687     23688     23681     23684     23687     23689
     23681     23684     23687     23690     23682     23681     23684     23685
     23682     23681     23684     23686     23682     23681     23684     23687
     23683     23681     23684     23685     23683     23681     23684     23686
     23683     23681     23684     23687     23684     23687     23690     23691
     23684     23687     23690     23692     23684     23687     23690     23693
     23685     23684     23687     23688     23685     23684     23687     23689
     23685     23684     23687     23690     23686     23684     23687     23688
     23686     23684     23687     23689     23686     23684     23687     23690
     23688     23687     23690     23691     23688     23687     23690     23692
     23688     23687     23690     23693     23689     23687     23690     23691
     23689     23687     23690     23692     23689     23687     23690     23693
     23694     23699     23701     23702     23694     23699     23703     23704
     23694     23699     23703     23705     23694     23699     23703     23710
     23695     23694     23697     23698     23695     23694     23699     23700
     23695     23694     23699     23701     23695     23694     23699     23703
     23696     23694     23697     23698     23696     23694     23699     23700
     23696     23694     23699     23701     23696     23694     23699     23703
     23697     23694     23699     23700     23697     23694     23699     23701
     23697     23694     23699     23703     23698     23697     23694     23699
     23699     23703     23710     23706     23700     23699     23701     23702
     23700     23699     23703     23704     23700     23699     23703     23705
     23700     23699     23703     23710     23701     23699     23703     23704
     23701     23699     23703     23705     23701     23699     23703     23710
     23702     23701     23699     23703     23703     23710     23706     23707
     23703     23710     23706     23708     23703     23710     23706     23709
     23704     23703     23710     23706     23705     23703     23710     23706
     23706     23709     23711     23712     23706     23709     23711     23713
     23706     23709     23711     23714     23707     23706     23709     23711
     23708     23706     23709     23711     23709     23711     23714     23715
     23709     23711     23714     23716     23709     23711     23714     23722
     23710     23706     23709     23711     23711     23714     23716     23717
     23711     23714     23722     23723     23711     23714     23722     23724
     23711     23714     23722     23725     23712     23711     23714     23715
     23712     23711     23714     23716     23712     23711     23714     23722
     23713     23711     23714     23715     23713     23711     23714     23716
     23713     23711     23714     23722     23714     23716     23717     23718
     23714     23716     23717     23719     23714     23722     23725     23726
     23715     23714     23716     23717     23715     23714     23722     23723
     23715     23714     23722     23724     23715     23714     23722     23725
     23716     23714     23722     23723     23716     23714     23722     23724
     23716     23714     23722     23725     23716     23717     23719     23720
     23716     23717     23719     23721     23716     23717     23719     23731
     23717     23716     23714     23722     23717     23719     23731     23732
     23717     23719     23731     23733     23717     23719     23731     23734
     23718     23717     23719     23720     23718     23717     23719     23721
     23718     23717     23719     23731     23719     23731     23734     23735
     23719     23731     23734     23736     23719     23731     23734     23737
     23720     23719     23731     23732     23720     23719     23731     23733
     23720     23719     23731     23734     23721     23719     23731     23732
     23721     23719     23731     23733     23721     23719     23731     23734
     23722     23725     23726     23727     23722     23725     23726     23728
     23723     23722     23725     23726     23724     23722     23725     23726
     23725     23726     23728     23729     23725     23726     23728     23730
     23725     23726     23728     23775     23726     23728     23775     23776
     23726     23728     23775     23777     23726     23728     23775     23778
     23727     23726     23728     23729     23727     23726     23728     23730
     23727     23726     23728     23775     23728     23775     23778     23779
     23728     23775     23778     23780     23728     23775     23778     23781
     23729     23728     23775     23776     23729     23728     23775     23777
     23729     23728     23775     23778     23730     23728     23775     23776
     23730     23728     23775     23777     23730     23728     23775     23778
     23731     23734     23737     23738     23731     23734     23737     23739
     23731     23734     23737     23740     23732     23731     23734     23735
     23732     23731     23734     23736     23732     23731     23734     23737
     23733     23731     23734     23735     23733     23731     23734     23736
     23733     23731     23734     23737     23734     23737     23740     23741
     23734     23737     23740     23742     23734     23737     23740     23743
     23735     23734     23737     23738     23735     23734     23737     23739
     23735     23734     23737     23740     23736     23734     23737     23738
     23736     23734     23737     23739     23736     23734     23737     23740
     23737     23740     23743     23744     23737     23740     23743     23745
     23737     23740     23743     23746     23738     23737     23740     23741
     23738     23737     23740     23742     23738     23737     23740     23743
     23739     23737     23740     23741     23739     23737     23740     23742
     23739     23737     23740     23743     23740     23743     23746     23747
     23740     23743     23746     23748     23740     23743     23746     23749
     23741     23740     23743     23744     23741     23740     23743     23745
     23741     23740     23743     23746     23742     23740     23743     23744
     23742     23740     23743     23745     23742     23740     23743     23746
     23743     23746     23749     23750     23743     23746     23749     23751
     23743     23746     23749     23754     23744     23743     23746     23747
     23744     23743     23746     23748     23744     23743     23746     23749
     23745     23743     23746     23747     23745     23743     23746     23748
     23745     23743     23746     23749     23746     23749     23751     23752
     23746     23749     23751     23753     23746     23749     23751     23754
     23746     23749     23754     23751     23746     23749     23754     23755
     23746     23749     23754     23756     23747     23746     23749     23750
     23747     23746     23749     23751     23747     23746     23749     23754
     23748     23746     23749     23750     23748     23746     23749     23751
     23748     23746     23749     23754     23749     23751     23754     23755
     23749     23751     23754     23756     23749     23754     23751     23752
     23749     23754     23751     23753     23749     23754     23756     23757
     23749     23754     23756     23758     23749     23754     23756     23759
     23750     23749     23751     23752     23750     23749     23751     23753
     23750     23749     23751     23754     23750     23749     23754     23751
     23750     23749     23754     23755     23750     23749     23754     23756
     23751     23749     23754     23755     23751     23749     23754     23756
     23751     23754     23756     23757     23751     23754     23756     23758
     23751     23754     23756     23759     23752     23751     23749     23754
     23752     23751     23754     23755     23752     23751     23754     23756
     23753     23751     23749     23754     23753     23751     23754     23755
     23753     23751     23754     23756     23754     23756     23759     23760
     23754     23756     23759     23761     23754     23756     23759     23762
     23755     23754     23756     23757     23755     23754     23756     23758
     23755     23754     23756     23759     23756     23759     23762     23763
     23756     23759     23762     23764     23756     23759     23762     23765
     23757     23756     23759     23760     23757     23756     23759     23761
     23757     23756     23759     23762     23758     23756     23759     23760
     23758     23756     23759     23761     23758     23756     23759     23762
     23759     23762     23765     23766     23759     23762     23765     23767
     23759     23762     23765     23768     23760     23759     23762     23763
     23760     23759     23762     23764     23760     23759     23762     23765
     23761     23759     23762     23763     23761     23759     23762     23764
     23761     23759     23762     23765     23762     23765     23768     23769
     23762     23765     23768     23770     23762     23765     23768     23771
     23763     23762     23765     23766     23763     23762     23765     23767
     23763     23762     23765     23768     23764     23762     23765     23766
     23764     23762     23765     23767     23764     23762     23765     23768
     23765     23768     23771     23772     23765     23768     23771     23773
     23765     23768     23771     23774     23766     23765     23768     23769
     23766     23765     23768     23770     23766     23765     23768     23771
     23767     23765     23768     23769     23767     23765     23768     23770
     23767     23765     23768     23771     23769     23768     23771     23772
     23769     23768     23771     23773     23769     23768     23771     23774
     23770     23768     23771     23772     23770     23768     23771     23773
     23770     23768     23771     23774     23775     23778     23781     23782
     23775     23778     23781     23783     23775     23778     23781     23784
     23776     23775     23778     23779     23776     23775     23778     23780
     23776     23775     23778     23781     23777     23775     23778     23779
     23777     23775     23778     23780     23777     23775     23778     23781
     23778     23781     23784     23785     23778     23781     23784     23786
     23778     23781     23784     23787     23779     23778     23781     23782
     23779     23778     23781     23783     23779     23778     23781     23784
     23780     23778     23781     23782     23780     23778     23781     23783
     23780     23778     23781     23784     23781     23784     23787     23788
     23781     23784     23787     23789     23781     23784     23787     23790
     23782     23781     23784     23785     23782     23781     23784     23786
     23782     23781     23784     23787     23783     23781     23784     23785
     23783     23781     23784     23786     23783     23781     23784     23787
     23784     23787     23790     23791     23784     23787     23790     23792
     23784     23787     23790     23793     23785     23784     23787     23788
     23785     23784     23787     23789     23785     23784     23787     23790
     23786     23784     23787     23788     23786     23784     23787     23789
     23786     23784     23787     23790     23787     23790     23793     23794
     23787     23790     23793     23795     23787     23790     23793     23796
     23788     23787     23790     23791     23788     23787     23790     23792
     23788     23787     23790     23793     23789     23787     23790     23791
     23789     23787     23790     23792     23789     23787     23790     23793
     23790     23793     23796     23797     23790     23793     23796     23798
     23790     23793     23796     23799     23791     23790     23793     23794
     23791     23790     23793     23795     23791     23790     23793     23796
     23792     23790     23793     23794     23792     23790     23793     23795
     23792     23790     23793     23796     23793     23796     23799     23800
     23793     23796     23799     23801     23793     23796     23799     23802
     23794     23793     23796     23797     23794     23793     23796     23798
     23794     23793     23796     23799     23795     23793     23796     23797
     23795     23793     23796     23798     23795     23793     23796     23799
     23796     23799     23802     23803     23796     23799     23802     23804
     23796     23799     23802     23805     23797     23796     23799     23800
     23797     23796     23799     23801     23797     23796     23799     23802
     23798     23796     23799     23800     23798     23796     23799     23801
     23798     23796     23799     23802     23799     23802     23805     23806
     23799     23802     23805     23807     23799     23802     23805     23808
     23800     23799     23802     23803     23800     23799     23802     23804
     23800     23799     23802     23805     23801     23799     23802     23803
     23801     23799     23802     23804     23801     23799     23802     23805
     23802     23805     23808     23809     23802     23805     23808     23810
     23802     23805     23808     23811     23803     23802     23805     23806
     23803     23802     23805     23807     23803     23802     23805     23808
     23804     23802     23805     23806     23804     23802     23805     23807
     23804     23802     23805     23808     23805     23808     23811     23812
     23805     23808     23811     23813     23805     23808     23811     23814
     23806     23805     23808     23809     23806     23805     23808     23810
     23806     23805     23808     23811     23807     23805     23808     23809
     23807     23805     23808     23810     23807     23805     23808     23811
     23808     23811     23814     23815     23808     23811     23814     23816
     23808     23811     23814     23817     23809     23808     23811     23812
     23809     23808     23811     23813     23809     23808     23811     23814
     23810     23808     23811     23812     23810     23808     23811     23813
     23810     23808     23811     23814     23812     23811     23814     23815
     23812     23811     23814     23816     23812     23811     23814     23817
     23813     23811     23814     23815     23813     23811     23814     23816
     23813     23811     23814     23817     23818     23823     23825     23826
     23818     23823     23827     23828     23818     23823     23827     23829
     23818     23823     23827     23834     23819     23818     23821     23822
     23819     23818     23823     23824     23819     23818     23823     23825
     23819     23818     23823     23827     23820     23818     23821     23822
     23820     23818     23823     23824     23820     23818     23823     23825
     23820     23818     23823     23827     23821     23818     23823     23824
     23821     23818     23823     23825     23821     23818     23823     23827
     23822     23821     23818     23823     23823     23827     23834     23830
     23824     23823     23825     23826     23824     23823     23827     23828
     23824     23823     23827     23829     23824     23823     23827     23834
     23825     23823     23827     23828     23825     23823     23827     23829
     23825     23823     23827     23834     23826     23825     23823     23827
     23827     23834     23830     23831     23827     23834     23830     23832
     23827     23834     23830     23833     23828     23827     23834     23830
     23829     23827     23834     23830     23830     23833     23835     23836
     23830     23833     23835     23837     23830     23833     23835     23838
     23831     23830     23833     23835     23832     23830     23833     23835
     23833     23835     23838     23839     23833     23835     23838     23840
     23833     23835     23838     23846     23834     23830     23833     23835
     23835     23838     23840     23841     23835     23838     23846     23847
     23835     23838     23846     23848     23835     23838     23846     23849
     23836     23835     23838     23839     23836     23835     23838     23840
     23836     23835     23838     23846     23837     23835     23838     23839
     23837     23835     23838     23840     23837     23835     23838     23846
     23838     23840     23841     23842     23838     23840     23841     23843
     23838     23846     23849     23850     23839     23838     23840     23841
     23839     23838     23846     23847     23839     23838     23846     23848
     23839     23838     23846     23849     23840     23838     23846     23847
     23840     23838     23846     23848     23840     23838     23846     23849
     23840     23841     23843     23844     23840     23841     23843     23845
     23840     23841     23843     23855     23841     23840     23838     23846
     23841     23843     23855     23856     23841     23843     23855     23857
     23841     23843     23855     23858     23842     23841     23843     23844
     23842     23841     23843     23845     23842     23841     23843     23855
     23843     23855     23858     23859     23843     23855     23858     23860
     23843     23855     23858     23861     23844     23843     23855     23856
     23844     23843     23855     23857     23844     23843     23855     23858
     23845     23843     23855     23856     23845     23843     23855     23857
     23845     23843     23855     23858     23846     23849     23850     23851
     23846     23849     23850     23852     23847     23846     23849     23850
     23848     23846     23849     23850     23849     23850     23852     23853
     23849     23850     23852     23854     23849     23850     23852     23899
     23850     23852     23899     23900     23850     23852     23899     23901
     23850     23852     23899     23902     23851     23850     23852     23853
     23851     23850     23852     23854     23851     23850     23852     23899
     23852     23899     23902     23903     23852     23899     23902     23904
     23852     23899     23902     23905     23853     23852     23899     23900
     23853     23852     23899     23901     23853     23852     23899     23902
     23854     23852     23899     23900     23854     23852     23899     23901
     23854     23852     23899     23902     23855     23858     23861     23862
     23855     23858     23861     23863     23855     23858     23861     23864
     23856     23855     23858     23859     23856     23855     23858     23860
     23856     23855     23858     23861     23857     23855     23858     23859
     23857     23855     23858     23860     23857     23855     23858     23861
     23858     23861     23864     23865     23858     23861     23864     23866
     23858     23861     23864     23867     23859     23858     23861     23862
     23859     23858     23861     23863     23859     23858     23861     23864
     23860     23858     23861     23862     23860     23858     23861     23863
     23860     23858     23861     23864     23861     23864     23867     23868
     23861     23864     23867     23869     23861     23864     23867     23870
     23862     23861     23864     23865     23862     23861     23864     23866
     23862     23861     23864     23867     23863     23861     23864     23865
     23863     23861     23864     23866     23863     23861     23864     23867
     23864     23867     23870     23871     23864     23867     23870     23872
     23864     23867     23870     23873     23865     23864     23867     23868
     23865     23864     23867     23869     23865     23864     23867     23870
     23866     23864     23867     23868     23866     23864     23867     23869
     23866     23864     23867     23870     23867     23870     23873     23874
     23867     23870     23873     23875     23867     23870     23873     23878
     23868     23867     23870     23871     23868     23867     23870     23872
     23868     23867     23870     23873     23869     23867     23870     23871
     23869     23867     23870     23872     23869     23867     23870     23873
     23870     23873     23875     23876     23870     23873     23875     23877
     23870     23873     23875     23878     23870     23873     23878     23875
     23870     23873     23878     23879     23870     23873     23878     23880
     23871     23870     23873     23874     23871     23870     23873     23875
     23871     23870     23873     23878     23872     23870     23873     23874
     23872     23870     23873     23875     23872     23870     23873     23878
     23873     23875     23878     23879     23873     23875     23878     23880
     23873     23878     23875     23876     23873     23878     23875     23877
     23873     23878     23880     23881     23873     23878     23880     23882
     23873     23878     23880     23883     23874     23873     23875     23876
     23874     23873     23875     23877     23874     23873     23875     23878
     23874     23873     23878     23875     23874     23873     23878     23879
     23874     23873     23878     23880     23875     23873     23878     23879
     23875     23873     23878     23880     23875     23878     23880     23881
     23875     23878     23880     23882     23875     23878     23880     23883
     23876     23875     23873     23878     23876     23875     23878     23879
     23876     23875     23878     23880     23877     23875     23873     23878
     23877     23875     23878     23879     23877     23875     23878     23880
     23878     23880     23883     23884     23878     23880     23883     23885
     23878     23880     23883     23886     23879     23878     23880     23881
     23879     23878     23880     23882     23879     23878     23880     23883
     23880     23883     23886     23887     23880     23883     23886     23888
     23880     23883     23886     23889     23881     23880     23883     23884
     23881     23880     23883     23885     23881     23880     23883     23886
     23882     23880     23883     23884     23882     23880     23883     23885
     23882     23880     23883     23886     23883     23886     23889     23890
     23883     23886     23889     23891     23883     23886     23889     23892
     23884     23883     23886     23887     23884     23883     23886     23888
     23884     23883     23886     23889     23885     23883     23886     23887
     23885     23883     23886     23888     23885     23883     23886     23889
     23886     23889     23892     23893     23886     23889     23892     23894
     23886     23889     23892     23895     23887     23886     23889     23890
     23887     23886     23889     23891     23887     23886     23889     23892
     23888     23886     23889     23890     23888     23886     23889     23891
     23888     23886     23889     23892     23889     23892     23895     23896
     23889     23892     23895     23897     23889     23892     23895     23898
     23890     23889     23892     23893     23890     23889     23892     23894
     23890     23889     23892     23895     23891     23889     23892     23893
     23891     23889     23892     23894     23891     23889     23892     23895
     23893     23892     23895     23896     23893     23892     23895     23897
     23893     23892     23895     23898     23894     23892     23895     23896
     23894     23892     23895     23897     23894     23892     23895     23898
     23899     23902     23905     23906     23899     23902     23905     23907
     23899     23902     23905     23908     23900     23899     23902     23903
     23900     23899     23902     23904     23900     23899     23902     23905
     23901     23899     23902     23903     23901     23899     23902     23904
     23901     23899     23902     23905     23902     23905     23908     23909
     23902     23905     23908     23910     23902     23905     23908     23911
     23903     23902     23905     23906     23903     23902     23905     23907
     23903     23902     23905     23908     23904     23902     23905     23906
     23904     23902     23905     23907     23904     23902     23905     23908
     23905     23908     23911     23912     23905     23908     23911     23913
     23905     23908     23911     23914     23906     23905     23908     23909
     23906     23905     23908     23910     23906     23905     23908     23911
     23907     23905     23908     23909     23907     23905     23908     23910
     23907     23905     23908     23911     23908     23911     23914     23915
     23908     23911     23914     23916     23908     23911     23914     23917
     23909     23908     23911     23912     23909     23908     23911     23913
     23909     23908     23911     23914     23910     23908     23911     23912
     23910     23908     23911     23913     23910     23908     23911     23914
     23911     23914     23917     23918     23911     23914     23917     23919
     23911     23914     23917     23920     23912     23911     23914     23915
     23912     23911     23914     23916     23912     23911     23914     23917
     23913     23911     23914     23915     23913     23911     23914     23916
     23913     23911     23914     23917     23914     23917     23920     23921
     23914     23917     23920     23922     23914     23917     23920     23923
     23915     23914     23917     23918     23915     23914     23917     23919
     23915     23914     23917     23920     23916     23914     23917     23918
     23916     23914     23917     23919     23916     23914     23917     23920
     23917     23920     23923     23924     23917     23920     23923     23925
     23917     23920     23923     23926     23918     23917     23920     23921
     23918     23917     23920     23922     23918     23917     23920     23923
     23919     23917     23920     23921     23919     23917     23920     23922
     23919     23917     23920     23923     23920     23923     23926     23927
     23920     23923     23926     23928     23920     23923     23926     23929
     23921     23920     23923     23924     23921     23920     23923     23925
     23921     23920     23923     23926     23922     23920     23923     23924
     23922     23920     23923     23925     23922     23920     23923     23926
     23923     23926     23929     23930     23923     23926     23929     23931
     23923     23926     23929     23932     23924     23923     23926     23927
     23924     23923     23926     23928     23924     23923     23926     23929
     23925     23923     23926     23927     23925     23923     23926     23928
     23925     23923     23926     23929     23926     23929     23932     23933
     23926     23929     23932     23934     23926     23929     23932     23935
     23927     23926     23929     23930     23927     23926     23929     23931
     23927     23926     23929     23932     23928     23926     23929     23930
     23928     23926     23929     23931     23928     23926     23929     23932
     23929     23932     23935     23936     23929     23932     23935     23937
     23929     23932     23935     23938     23930     23929     23932     23933
     23930     23929     23932     23934     23930     23929     23932     23935
     23931     23929     23932     23933     23931     23929     23932     23934
     23931     23929     23932     23935     23932     23935     23938     23939
     23932     23935     23938     23940     23932     23935     23938     23941
     23933     23932     23935     23936     23933     23932     23935     23937
     23933     23932     23935     23938     23934     23932     23935     23936
     23934     23932     23935     23937     23934     23932     23935     23938
     23936     23935     23938     23939     23936     23935     23938     23940
     23936     23935     23938     23941     23937     23935     23938     23939
     23937     23935     23938     23940     23937     23935     23938     23941
     23942     23947     23949     23950     23942     23947     23951     23952
     23942     23947     23951     23953     23942     23947     23951     23958
     23943     23942     23945     23946     23943     23942     23947     23948
     23943     23942     23947     23949     23943     23942     23947     23951
     23944     23942     23945     23946     23944     23942     23947     23948
     23944     23942     23947     23949     23944     23942     23947     23951
     23945     23942     23947     23948     23945     23942     23947     23949
     23945     23942     23947     23951     23946     23945     23942     23947
     23947     23951     23958     23954     23948     23947     23949     23950
     23948     23947     23951     23952     23948     23947     23951     23953
     23948     23947     23951     23958     23949     23947     23951     23952
     23949     23947     23951     23953     23949     23947     23951     23958
     23950     23949     23947     23951     23951     23958     23954     23955
     23951     23958     23954     23956     23951     23958     23954     23957
     23952     23951     23958     23954     23953     23951     23958     23954
     23954     23957     23959     23960     23954     23957     23959     23961
     23954     23957     23959     23962     23955     23954     23957     23959
     23956     23954     23957     23959     23957     23959     23962     23963
     23957     23959     23962     23964     23957     23959     23962     23970
     23958     23954     23957     23959     23959     23962     23964     23965
     23959     23962     23970     23971     23959     23962     23970     23972
     23959     23962     23970     23973     23960     23959     23962     23963
     23960     23959     23962     23964     23960     23959     23962     23970
     23961     23959     23962     23963     23961     23959     23962     23964
     23961     23959     23962     23970     23962     23964     23965     23966
     23962     23964     23965     23967     23962     23970     23973     23974
     23963     23962     23964     23965     23963     23962     23970     23971
     23963     23962     23970     23972     23963     23962     23970     23973
     23964     23962     23970     23971     23964     23962     23970     23972
     23964     23962     23970     23973     23964     23965     23967     23968
     23964     23965     23967     23969     23964     23965     23967     23979
     23965     23964     23962     23970     23965     23967     23979     23980
     23965     23967     23979     23981     23965     23967     23979     23982
     23966     23965     23967     23968     23966     23965     23967     23969
     23966     23965     23967     23979     23967     23979     23982     23983
     23967     23979     23982     23984     23967     23979     23982     23985
     23968     23967     23979     23980     23968     23967     23979     23981
     23968     23967     23979     23982     23969     23967     23979     23980
     23969     23967     23979     23981     23969     23967     23979     23982
     23970     23973     23974     23975     23970     23973     23974     23976
     23971     23970     23973     23974     23972     23970     23973     23974
     23973     23974     23976     23977     23973     23974     23976     23978
     23973     23974     23976     24020     23974     23976     24020     24021
     23974     23976     24020     24022     23974     23976     24020     24023
     23975     23974     23976     23977     23975     23974     23976     23978
     23975     23974     23976     24020     23976     24020     24023     24024
     23976     24020     24023     24025     23976     24020     24023     24026
     23977     23976     24020     24021     23977     23976     24020     24022
     23977     23976     24020     24023     23978     23976     24020     24021
     23978     23976     24020     24022     23978     23976     24020     24023
     23979     23982     23985     23986     23979     23982     23985     23987
     23979     23982     23985     23988     23980     23979     23982     23983
     23980     23979     23982     23984     23980     23979     23982     23985
     23981     23979     23982     23983     23981     23979     23982     23984
     23981     23979     23982     23985     23982     23985     23988     23989
     23982     23985     23988     23990     23982     23985     23988     23991
     23983     23982     23985     23986     23983     23982     23985     23987
     23983     23982     23985     23988     23984     23982     23985     23986
     23984     23982     23985     23987     23984     23982     23985     23988
     23985     23988     23991     23992     23985     23988     23991     23993
     23985     23988     23991     23994     23986     23985     23988     23989
     23986     23985     23988     23990     23986     23985     23988     23991
     23987     23985     23988     23989     23987     23985     23988     23990
     23987     23985     23988     23991     23988     23991     23994     23995
     23988     23991     23994     23996     23988     23991     23994     23997
     23989     23988     23991     23992     23989     23988     23991     23993
     23989     23988     23991     23994     23990     23988     23991     23992
     23990     23988     23991     23993     23990     23988     23991     23994
     23991     23994     23997     23998     23991     23994     23997     23999
     23992     23991     23994     23995     23992     23991     23994     23996
     23992     23991     23994     23997     23993     23991     23994     23995
     23993     23991     23994     23996     23993     23991     23994     23997
     23994     23997     23999     24000     23994     23997     23999     24001
     23995     23994     23997     23998     23995     23994     23997     23999
     23996     23994     23997     23998     23996     23994     23997     23999
     23997     23999     24001     24002     23997     23999     24001     24003
     23997     23999     24001     24004     23998     23997     23999     24000
     23998     23997     23999     24001     23999     24001     24004     24005
     23999     24001     24004     24006     23999     24001     24004     24007
     24000     23999     24001     24002     24000     23999     24001     24003
     24000     23999     24001     24004     24001     24004     24007     24008
     24001     24004     24007     24009     24001     24004     24007     24010
     24002     24001     24004     24005     24002     24001     24004     24006
     24002     24001     24004     24007     24003     24001     24004     24005
     24003     24001     24004     24006     24003     24001     24004     24007
     24004     24007     24010     24011     24004     24007     24010     24012
     24004     24007     24010     24013     24005     24004     24007     24008
     24005     24004     24007     24009     24005     24004     24007     24010
     24006     24004     24007     24008     24006     24004     24007     24009
     24006     24004     24007     24010     24007     24010     24013     24014
     24007     24010     24013     24015     24007     24010     24013     24016
     24008     24007     24010     24011     24008     24007     24010     24012
     24008     24007     24010     24013     24009     24007     24010     24011
     24009     24007     24010     24012     24009     24007     24010     24013
     24010     24013     24016     24017     24010     24013     24016     24018
     24010     24013     24016     24019     24011     24010     24013     24014
     24011     24010     24013     24015     24011     24010     24013     24016
     24012     24010     24013     24014     24012     24010     24013     24015
     24012     24010     24013     24016     24014     24013     24016     24017
     24014     24013     24016     24018     24014     24013     24016     24019
     24015     24013     24016     24017     24015     24013     24016     24018
     24015     24013     24016     24019     24020     24023     24026     24027
     24020     24023     24026     24028     24020     24023     24026     24029
     24021     24020     24023     24024     24021     24020     24023     24025
     24021     24020     24023     24026     24022     24020     24023     24024
     24022     24020     24023     24025     24022     24020     24023     24026
     24023     24026     24029     24030     24023     24026     24029     24031
     24023     24026     24029     24032     24024     24023     24026     24027
     24024     24023     24026     24028     24024     24023     24026     24029
     24025     24023     24026     24027     24025     24023     24026     24028
     24025     24023     24026     24029     24026     24029     24032     24033
     24026     24029     24032     24034     24026     24029     24032     24035
     24027     24026     24029     24030     24027     24026     24029     24031
     24027     24026     24029     24032     24028     24026     24029     24030
     24028     24026     24029     24031     24028     24026     24029     24032
     24029     24032     24035     24036     24029     24032     24035     24037
     24029     24032     24035     24038     24030     24029     24032     24033
     24030     24029     24032     24034     24030     24029     24032     24035
     24031     24029     24032     24033     24031     24029     24032     24034
     24031     24029     24032     24035     24032     24035     24038     24039
     24032     24035     24038     24040     24032     24035     24038     24041
     24033     24032     24035     24036     24033     24032     24035     24037
     24033     24032     24035     24038     24034     24032     24035     24036
     24034     24032     24035     24037     24034     24032     24035     24038
     24035     24038     24041     24042     24035     24038     24041     24043
     24035     24038     24041     24044     24036     24035     24038     24039
     24036     24035     24038     24040     24036     24035     24038     24041
     24037     24035     24038     24039     24037     24035     24038     24040
     24037     24035     24038     24041     24038     24041     24044     24045
     24038     24041     24044     24046     24038     24041     24044     24047
     24039     24038     24041     24042     24039     24038     24041     24043
     24039     24038     24041     24044     24040     24038     24041     24042
     24040     24038     24041     24043     24040     24038     24041     24044
     24041     24044     24047     24048     24041     24044     24047     24049
     24041     24044     24047     24050     24042     24041     24044     24045
     24042     24041     24044     24046     24042     24041     24044     24047
     24043     24041     24044     24045     24043     24041     24044     24046
     24043     24041     24044     24047     24044     24047     24050     24051
     24044     24047     24050     24052     24044     24047     24050     24053
     24045     24044     24047     24048     24045     24044     24047     24049
     24045     24044     24047     24050     24046     24044     24047     24048
     24046     24044     24047     24049     24046     24044     24047     24050
     24047     24050     24053     24054     24047     24050     24053     24055
     24047     24050     24053     24056     24048     24047     24050     24051
     24048     24047     24050     24052     24048     24047     24050     24053
     24049     24047     24050     24051     24049     24047     24050     24052
     24049     24047     24050     24053     24050     24053     24056     24057
     24050     24053     24056     24058     24050     24053     24056     24059
     24051     24050     24053     24054     24051     24050     24053     24055
     24051     24050     24053     24056     24052     24050     24053     24054
     24052     24050     24053     24055     24052     24050     24053     24056
     24053     24056     24059     24060     24053     24056     24059     24061
     24053     24056     24059     24062     24054     24053     24056     24057
     24054     24053     24056     24058     24054     24053     24056     24059
     24055     24053     24056     24057     24055     24053     24056     24058
     24055     24053     24056     24059     24057     24056     24059     24060
     24057     24056     24059     24061     24057     24056     24059     24062
     24058     24056     24059     24060     24058     24056     24059     24061
     24058     24056     24059     24062     24063     24067     24070     24071
     24063     24067     24070     24072     24063     24067     24070     24077
     24064     24063     24067     24068     24064     24063     24067     24069
     24064     24063     24067     24070     24065     24063     24067     24068
     24065     24063     24067     24069     24065     24063     24067     24070
     24066     24063     24067     24068     24066     24063     24067     24069
     24066     24063     24067     24070     24067     24070     24077     24073
     24068     24067     24070     24071     24068     24067     24070     24072
     24068     24067     24070     24077     24069     24067     24070     24071
     24069     24067     24070     24072     24069     24067     24070     24077
     24070     24077     24073     24074     24070     24077     24073     24075
     24070     24077     24073     24076     24071     24070     24077     24073
     24072     24070     24077     24073     24073     24076     24078     24079
     24073     24076     24078     24080     24073     24076     24078     24081
     24074     24073     24076     24078     24075     24073     24076     24078
     24076     24078     24081     24082     24076     24078     24081     24083
     24076     24078     24081     24089     24077     24073     24076     24078
     24078     24081     24083     24084     24078     24081     24089     24090
     24078     24081     24089     24091     24078     24081     24089     24092
     24079     24078     24081     24082     24079     24078     24081     24083
     24079     24078     24081     24089     24080     24078     24081     24082
     24080     24078     24081     24083     24080     24078     24081     24089
     24081     24083     24084     24085     24081     24083     24084     24086
     24081     24089     24092     24093     24082     24081     24083     24084
     24082     24081     24089     24090     24082     24081     24089     24091
     24082     24081     24089     24092     24083     24081     24089     24090
     24083     24081     24089     24091     24083     24081     24089     24092
     24083     24084     24086     24087     24083     24084     24086     24088
     24083     24084     24086     24098     24084     24083     24081     24089
     24084     24086     24098     24099     24084     24086     24098     24100
     24084     24086     24098     24101     24085     24084     24086     24087
     24085     24084     24086     24088     24085     24084     24086     24098
     24086     24098     24101     24102     24086     24098     24101     24103
     24086     24098     24101     24104     24087     24086     24098     24099
     24087     24086     24098     24100     24087     24086     24098     24101
     24088     24086     24098     24099     24088     24086     24098     24100
     24088     24086     24098     24101     24089     24092     24093     24094
     24089     24092     24093     24095     24090     24089     24092     24093
     24091     24089     24092     24093     24092     24093     24095     24096
     24092     24093     24095     24097     24092     24093     24095     24145
     24093     24095     24145     24146     24093     24095     24145     24147
     24093     24095     24145     24148     24094     24093     24095     24096
     24094     24093     24095     24097     24094     24093     24095     24145
     24095     24145     24148     24149     24095     24145     24148     24150
     24095     24145     24148     24151     24096     24095     24145     24146
     24096     24095     24145     24147     24096     24095     24145     24148
     24097     24095     24145     24146     24097     24095     24145     24147
     24097     24095     24145     24148     24098     24101     24104     24105
     24098     24101     24104     24106     24098     24101     24104     24107
     24099     24098     24101     24102     24099     24098     24101     24103
     24099     24098     24101     24104     24100     24098     24101     24102
     24100     24098     24101     24103     24100     24098     24101     24104
     24101     24104     24107     24108     24101     24104     24107     24109
     24101     24104     24107     24110     24102     24101     24104     24105
     24102     24101     24104     24106     24102     24101     24104     24107
     24103     24101     24104     24105     24103     24101     24104     24106
     24103     24101     24104     24107     24104     24107     24110     24111
     24104     24107     24110     24112     24104     24107     24110     24113
     24105     24104     24107     24108     24105     24104     24107     24109
     24105     24104     24107     24110     24106     24104     24107     24108
     24106     24104     24107     24109     24106     24104     24107     24110
     24107     24110     24113     24114     24107     24110     24113     24115
     24107     24110     24113     24116     24108     24107     24110     24111
     24108     24107     24110     24112     24108     24107     24110     24113
     24109     24107     24110     24111     24109     24107     24110     24112
     24109     24107     24110     24113     24110     24113     24116     24117
     24110     24113     24116     24118     24111     24110     24113     24114
     24111     24110     24113     24115     24111     24110     24113     24116
     24112     24110     24113     24114     24112     24110     24113     24115
     24112     24110     24113     24116     24113     24116     24118     24119
     24113     24116     24118     24120     24114     24113     24116     24117
     24114     24113     24116     24118     24115     24113     24116     24117
     24115     24113     24116     24118     24116     24118     24120     24121
     24116     24118     24120     24122     24116     24118     24120     24123
     24117     24116     24118     24119     24117     24116     24118     24120
     24118     24120     24123     24124     24118     24120     24123     24125
     24118     24120     24123     24126     24119     24118     24120     24121
     24119     24118     24120     24122     24119     24118     24120     24123
     24120     24123     24126     24127     24120     24123     24126     24128
     24120     24123     24126     24129     24121     24120     24123     24124
     24121     24120     24123     24125     24121     24120     24123     24126
     24122     24120     24123     24124     24122     24120     24123     24125
     24122     24120     24123     24126     24123     24126     24129     24130
     24123     24126     24129     24131     24123     24126     24129     24132
     24124     24123     24126     24127     24124     24123     24126     24128
     24124     24123     24126     24129     24125     24123     24126     24127
     24125     24123     24126     24128     24125     24123     24126     24129
     24126     24129     24132     24133     24126     24129     24132     24134
     24126     24129     24132     24135     24127     24126     24129     24130
     24127     24126     24129     24131     24127     24126     24129     24132
     24128     24126     24129     24130     24128     24126     24129     24131
     24128     24126     24129     24132     24129     24132     24135     24136
     24129     24132     24135     24137     24129     24132     24135     24138
     24130     24129     24132     24133     24130     24129     24132     24134
     24130     24129     24132     24135     24131     24129     24132     24133
     24131     24129     24132     24134     24131     24129     24132     24135
     24132     24135     24138     24139     24132     24135     24138     24140
     24132     24135     24138     24141     24133     24132     24135     24136
     24133     24132     24135     24137     24133     24132     24135     24138
     24134     24132     24135     24136     24134     24132     24135     24137
     24134     24132     24135     24138     24135     24138     24141     24142
     24135     24138     24141     24143     24135     24138     24141     24144
     24136     24135     24138     24139     24136     24135     24138     24140
     24136     24135     24138     24141     24137     24135     24138     24139
     24137     24135     24138     24140     24137     24135     24138     24141
     24139     24138     24141     24142     24139     24138     24141     24143
     24139     24138     24141     24144     24140     24138     24141     24142
     24140     24138     24141     24143     24140     24138     24141     24144
     24145     24148     24151     24152     24145     24148     24151     24153
     24145     24148     24151     24154     24146     24145     24148     24149
     24146     24145     24148     24150     24146     24145     24148     24151
     24147     24145     24148     24149     24147     24145     24148     24150
     24147     24145     24148     24151     24148     24151     24154     24155
     24148     24151     24154     24156     24148     24151     24154     24157
     24149     24148     24151     24152     24149     24148     24151     24153
     24149     24148     24151     24154     24150     24148     24151     24152
     24150     24148     24151     24153     24150     24148     24151     24154
     24151     24154     24157     24158     24151     24154     24157     24159
     24151     24154     24157     24160     24152     24151     24154     24155
     24152     24151     24154     24156     24152     24151     24154     24157
     24153     24151     24154     24155     24153     24151     24154     24156
     24153     24151     24154     24157     24154     24157     24160     24161
     24154     24157     24160     24162     24154     24157     24160     24163
     24155     24154     24157     24158     24155     24154     24157     24159
     24155     24154     24157     24160     24156     24154     24157     24158
     24156     24154     24157     24159     24156     24154     24157     24160
     24157     24160     24163     24164     24157     24160     24163     24165
     24157     24160     24163     24166     24158     24157     24160     24161
     24158     24157     24160     24162     24158     24157     24160     24163
     24159     24157     24160     24161     24159     24157     24160     24162
     24159     24157     24160     24163     24160     24163     24166     24167
     24160     24163     24166     24168     24160     24163     24166     24169
     24161     24160     24163     24164     24161     24160     24163     24165
     24161     24160     24163     24166     24162     24160     24163     24164
     24162     24160     24163     24165     24162     24160     24163     24166
     24163     24166     24169     24170     24163     24166     24169     24171
     24163     24166     24169     24172     24164     24163     24166     24167
     24164     24163     24166     24168     24164     24163     24166     24169
     24165     24163     24166     24167     24165     24163     24166     24168
     24165     24163     24166     24169     24166     24169     24172     24173
     24166     24169     24172     24174     24166     24169     24172     24175
     24167     24166     24169     24170     24167     24166     24169     24171
     24167     24166     24169     24172     24168     24166     24169     24170
     24168     24166     24169     24171     24168     24166     24169     24172
     24169     24172     24175     24176     24169     24172     24175     24177
     24169     24172     24175     24178     24170     24169     24172     24173
     24170     24169     24172     24174     24170     24169     24172     24175
     24171     24169     24172     24173     24171     24169     24172     24174
     24171     24169     24172     24175     24172     24175     24178     24179
     24172     24175     24178     24180     24172     24175     24178     24181
     24173     24172     24175     24176     24173     24172     24175     24177
     24173     24172     24175     24178     24174     24172     24175     24176
     24174     24172     24175     24177     24174     24172     24175     24178
     24175     24178     24181     24182     24175     24178     24181     24183
     24175     24178     24181     24184     24176     24175     24178     24179
     24176     24175     24178     24180     24176     24175     24178     24181
     24177     24175     24178     24179     24177     24175     24178     24180
     24177     24175     24178     24181     24178     24181     24184     24185
     24178     24181     24184     24186     24178     24181     24184     24187
     24179     24178     24181     24182     24179     24178     24181     24183
     24179     24178     24181     24184     24180     24178     24181     24182
     24180     24178     24181     24183     24180     24178     24181     24184
     24182     24181     24184     24185     24182     24181     24184     24186
     24182     24181     24184     24187     24183     24181     24184     24185
     24183     24181     24184     24186     24183     24181     24184     24187
     24188     24192     24195     24196     24188     24192     24195     24197
     24188     24192     24195     24202     24189     24188     24192     24193
     24189     24188     24192     24194     24189     24188     24192     24195
     24190     24188     24192     24193     24190     24188     24192     24194
     24190     24188     24192     24195     24191     24188     24192     24193
     24191     24188     24192     24194     24191     24188     24192     24195
     24192     24195     24202     24198     24193     24192     24195     24196
     24193     24192     24195     24197     24193     24192     24195     24202
     24194     24192     24195     24196     24194     24192     24195     24197
     24194     24192     24195     24202     24195     24202     24198     24199
     24195     24202     24198     24200     24195     24202     24198     24201
     24196     24195     24202     24198     24197     24195     24202     24198
     24198     24201     24203     24204     24198     24201     24203     24205
     24198     24201     24203     24206     24199     24198     24201     24203
     24200     24198     24201     24203     24201     24203     24206     24207
     24201     24203     24206     24208     24201     24203     24206     24214
     24202     24198     24201     24203     24203     24206     24208     24209
     24203     24206     24214     24215     24203     24206     24214     24216
     24203     24206     24214     24217     24204     24203     24206     24207
     24204     24203     24206     24208     24204     24203     24206     24214
     24205     24203     24206     24207     24205     24203     24206     24208
     24205     24203     24206     24214     24206     24208     24209     24210
     24206     24208     24209     24211     24206     24214     24217     24218
     24207     24206     24208     24209     24207     24206     24214     24215
     24207     24206     24214     24216     24207     24206     24214     24217
     24208     24206     24214     24215     24208     24206     24214     24216
     24208     24206     24214     24217     24208     24209     24211     24212
     24208     24209     24211     24213     24208     24209     24211     24223
     24209     24208     24206     24214     24209     24211     24223     24224
     24209     24211     24223     24225     24209     24211     24223     24226
     24210     24209     24211     24212     24210     24209     24211     24213
     24210     24209     24211     24223     24211     24223     24226     24227
     24211     24223     24226     24228     24211     24223     24226     24229
     24212     24211     24223     24224     24212     24211     24223     24225
     24212     24211     24223     24226     24213     24211     24223     24224
     24213     24211     24223     24225     24213     24211     24223     24226
     24214     24217     24218     24219     24214     24217     24218     24220
     24215     24214     24217     24218     24216     24214     24217     24218
     24217     24218     24220     24221     24217     24218     24220     24222
     24217     24218     24220     24267     24218     24220     24267     24268
     24218     24220     24267     24269     24218     24220     24267     24270
     24219     24218     24220     24221     24219     24218     24220     24222
     24219     24218     24220     24267     24220     24267     24270     24271
     24220     24267     24270     24272     24220     24267     24270     24273
     24221     24220     24267     24268     24221     24220     24267     24269
     24221     24220     24267     24270     24222     24220     24267     24268
     24222     24220     24267     24269     24222     24220     24267     24270
     24223     24226     24229     24230     24223     24226     24229     24231
     24223     24226     24229     24232     24224     24223     24226     24227
     24224     24223     24226     24228     24224     24223     24226     24229
     24225     24223     24226     24227     24225     24223     24226     24228
     24225     24223     24226     24229     24226     24229     24232     24233
     24226     24229     24232     24234     24226     24229     24232     24235
     24227     24226     24229     24230     24227     24226     24229     24231
     24227     24226     24229     24232     24228     24226     24229     24230
     24228     24226     24229     24231     24228     24226     24229     24232
     24229     24232     24235     24236     24229     24232     24235     24237
     24229     24232     24235     24238     24230     24229     24232     24233
     24230     24229     24232     24234     24230     24229     24232     24235
     24231     24229     24232     24233     24231     24229     24232     24234
     24231     24229     24232     24235     24232     24235     24238     24239
     24232     24235     24238     24240     24232     24235     24238     24241
     24233     24232     24235     24236     24233     24232     24235     24237
     24233     24232     24235     24238     24234     24232     24235     24236
     24234     24232     24235     24237     24234     24232     24235     24238
     24235     24238     24241     24242     24235     24238     24241     24243
     24235     24238     24241     24246     24236     24235     24238     24239
     24236     24235     24238     24240     24236     24235     24238     24241
     24237     24235     24238     24239     24237     24235     24238     24240
     24237     24235     24238     24241     24238     24241     24243     24244
     24238     24241     24243     24245     24238     24241     24243     24246
     24238     24241     24246     24243     24238     24241     24246     24247
     24238     24241     24246     24248     24239     24238     24241     24242
     24239     24238     24241     24243     24239     24238     24241     24246
     24240     24238     24241     24242     24240     24238     24241     24243
     24240     24238     24241     24246     24241     24243     24246     24247
     24241     24243     24246     24248     24241     24246     24243     24244
     24241     24246     24243     24245     24241     24246     24248     24249
     24241     24246     24248     24250     24241     24246     24248     24251
     24242     24241     24243     24244     24242     24241     24243     24245
     24242     24241     24243     24246     24242     24241     24246     24243
     24242     24241     24246     24247     24242     24241     24246     24248
     24243     24241     24246     24247     24243     24241     24246     24248
     24243     24246     24248     24249     24243     24246     24248     24250
     24243     24246     24248     24251     24244     24243     24241     24246
     24244     24243     24246     24247     24244     24243     24246     24248
     24245     24243     24241     24246     24245     24243     24246     24247
     24245     24243     24246     24248     24246     24248     24251     24252
     24246     24248     24251     24253     24246     24248     24251     24254
     24247     24246     24248     24249     24247     24246     24248     24250
     24247     24246     24248     24251     24248     24251     24254     24255
     24248     24251     24254     24256     24248     24251     24254     24257
     24249     24248     24251     24252     24249     24248     24251     24253
     24249     24248     24251     24254     24250     24248     24251     24252
     24250     24248     24251     24253     24250     24248     24251     24254
     24251     24254     24257     24258     24251     24254     24257     24259
     24251     24254     24257     24260     24252     24251     24254     24255
     24252     24251     24254     24256     24252     24251     24254     24257
     24253     24251     24254     24255     24253     24251     24254     24256
     24253     24251     24254     24257     24254     24257     24260     24261
     24254     24257     24260     24262     24254     24257     24260     24263
     24255     24254     24257     24258     24255     24254     24257     24259
     24255     24254     24257     24260     24256     24254     24257     24258
     24256     24254     24257     24259     24256     24254     24257     24260
     24257     24260     24263     24264     24257     24260     24263     24265
     24257     24260     24263     24266     24258     24257     24260     24261
     24258     24257     24260     24262     24258     24257     24260     24263
     24259     24257     24260     24261     24259     24257     24260     24262
     24259     24257     24260     24263     24261     24260     24263     24264
     24261     24260     24263     24265     24261     24260     24263     24266
     24262     24260     24263     24264     24262     24260     24263     24265
     24262     24260     24263     24266     24267     24270     24273     24274
     24267     24270     24273     24275     24267     24270     24273     24276
     24268     24267     24270     24271     24268     24267     24270     24272
     24268     24267     24270     24273     24269     24267     24270     24271
     24269     24267     24270     24272     24269     24267     24270     24273
     24270     24273     24276     24277     24270     24273     24276     24278
     24270     24273     24276     24279     24271     24270     24273     24274
     24271     24270     24273     24275     24271     24270     24273     24276
     24272     24270     24273     24274     24272     24270     24273     24275
     24272     24270     24273     24276     24273     24276     24279     24280
     24273     24276     24279     24281     24273     24276     24279     24282
     24274     24273     24276     24277     24274     24273     24276     24278
     24274     24273     24276     24279     24275     24273     24276     24277
     24275     24273     24276     24278     24275     24273     24276     24279
     24276     24279     24282     24283     24276     24279     24282     24284
     24276     24279     24282     24285     24277     24276     24279     24280
     24277     24276     24279     24281     24277     24276     24279     24282
     24278     24276     24279     24280     24278     24276     24279     24281
     24278     24276     24279     24282     24279     24282     24285     24286
     24279     24282     24285     24287     24279     24282     24285     24288
     24280     24279     24282     24283     24280     24279     24282     24284
     24280     24279     24282     24285     24281     24279     24282     24283
     24281     24279     24282     24284     24281     24279     24282     24285
     24282     24285     24288     24289     24282     24285     24288     24290
     24282     24285     24288     24291     24283     24282     24285     24286
     24283     24282     24285     24287     24283     24282     24285     24288
     24284     24282     24285     24286     24284     24282     24285     24287
     24284     24282     24285     24288     24285     24288     24291     24292
     24285     24288     24291     24293     24285     24288     24291     24294
     24286     24285     24288     24289     24286     24285     24288     24290
     24286     24285     24288     24291     24287     24285     24288     24289
     24287     24285     24288     24290     24287     24285     24288     24291
     24288     24291     24294     24295     24288     24291     24294     24296
     24288     24291     24294     24297     24289     24288     24291     24292
     24289     24288     24291     24293     24289     24288     24291     24294
     24290     24288     24291     24292     24290     24288     24291     24293
     24290     24288     24291     24294     24291     24294     24297     24298
     24291     24294     24297     24299     24291     24294     24297     24300
     24292     24291     24294     24295     24292     24291     24294     24296
     24292     24291     24294     24297     24293     24291     24294     24295
     24293     24291     24294     24296     24293     24291     24294     24297
     24294     24297     24300     24301     24294     24297     24300     24302
     24294     24297     24300     24303     24295     24294     24297     24298
     24295     24294     24297     24299     24295     24294     24297     24300
     24296     24294     24297     24298     24296     24294     24297     24299
     24296     24294     24297     24300     24297     24300     24303     24304
     24297     24300     24303     24305     24297     24300     24303     24306
     24298     24297     24300     24301     24298     24297     24300     24302
     24298     24297     24300     24303     24299     24297     24300     24301
     24299     24297     24300     24302     24299     24297     24300     24303
     24300     24303     24306     24307     24300     24303     24306     24308
     24300     24303     24306     24309     24301     24300     24303     24304
     24301     24300     24303     24305     24301     24300     24303     24306
     24302     24300     24303     24304     24302     24300     24303     24305
     24302     24300     24303     24306     24304     24303     24306     24307
     24304     24303     24306     24308     24304     24303     24306     24309
     24305     24303     24306     24307     24305     24303     24306     24308
     24305     24303     24306     24309     24310     24314     24317     24318
     24310     24314     24317     24319     24310     24314     24317     24324
     24311     24310     24314     24315     24311     24310     24314     24316
     24311     24310     24314     24317     24312     24310     24314     24315
     24312     24310     24314     24316     24312     24310     24314     24317
     24313     24310     24314     24315     24313     24310     24314     24316
     24313     24310     24314     24317     24314     24317     24324     24320
     24315     24314     24317     24318     24315     24314     24317     24319
     24315     24314     24317     24324     24316     24314     24317     24318
     24316     24314     24317     24319     24316     24314     24317     24324
     24317     24324     24320     24321     24317     24324     24320     24322
     24317     24324     24320     24323     24318     24317     24324     24320
     24319     24317     24324     24320     24320     24323     24325     24326
     24320     24323     24325     24327     24320     24323     24325     24328
     24321     24320     24323     24325     24322     24320     24323     24325
     24323     24325     24328     24329     24323     24325     24328     24330
     24323     24325     24328     24336     24324     24320     24323     24325
     24325     24328     24330     24331     24325     24328     24336     24337
     24325     24328     24336     24338     24325     24328     24336     24339
     24326     24325     24328     24329     24326     24325     24328     24330
     24326     24325     24328     24336     24327     24325     24328     24329
     24327     24325     24328     24330     24327     24325     24328     24336
     24328     24330     24331     24332     24328     24330     24331     24333
     24328     24336     24339     24340     24329     24328     24330     24331
     24329     24328     24336     24337     24329     24328     24336     24338
     24329     24328     24336     24339     24330     24328     24336     24337
     24330     24328     24336     24338     24330     24328     24336     24339
     24330     24331     24333     24334     24330     24331     24333     24335
     24330     24331     24333     24345     24331     24330     24328     24336
     24331     24333     24345     24346     24331     24333     24345     24347
     24331     24333     24345     24348     24332     24331     24333     24334
     24332     24331     24333     24335     24332     24331     24333     24345
     24333     24345     24348     24349     24333     24345     24348     24350
     24333     24345     24348     24351     24334     24333     24345     24346
     24334     24333     24345     24347     24334     24333     24345     24348
     24335     24333     24345     24346     24335     24333     24345     24347
     24335     24333     24345     24348     24336     24339     24340     24341
     24336     24339     24340     24342     24337     24336     24339     24340
     24338     24336     24339     24340     24339     24340     24342     24343
     24339     24340     24342     24344     24339     24340     24342     24392
     24340     24342     24392     24393     24340     24342     24392     24394
     24340     24342     24392     24395     24341     24340     24342     24343
     24341     24340     24342     24344     24341     24340     24342     24392
     24342     24392     24395     24396     24342     24392     24395     24397
     24342     24392     24395     24398     24343     24342     24392     24393
     24343     24342     24392     24394     24343     24342     24392     24395
     24344     24342     24392     24393     24344     24342     24392     24394
     24344     24342     24392     24395     24345     24348     24351     24352
     24345     24348     24351     24353     24345     24348     24351     24354
     24346     24345     24348     24349     24346     24345     24348     24350
     24346     24345     24348     24351     24347     24345     24348     24349
     24347     24345     24348     24350     24347     24345     24348     24351
     24348     24351     24354     24355     24348     24351     24354     24356
     24348     24351     24354     24357     24349     24348     24351     24352
     24349     24348     24351     24353     24349     24348     24351     24354
     24350     24348     24351     24352     24350     24348     24351     24353
     24350     24348     24351     24354     24351     24354     24357     24358
     24351     24354     24357     24359     24351     24354     24357     24360
     24352     24351     24354     24355     24352     24351     24354     24356
     24352     24351     24354     24357     24353     24351     24354     24355
     24353     24351     24354     24356     24353     24351     24354     24357
     24354     24357     24360     24361     24354     24357     24360     24362
     24354     24357     24360     24363     24355     24354     24357     24358
     24355     24354     24357     24359     24355     24354     24357     24360
     24356     24354     24357     24358     24356     24354     24357     24359
     24356     24354     24357     24360     24357     24360     24363     24364
     24357     24360     24363     24365     24358     24357     24360     24361
     24358     24357     24360     24362     24358     24357     24360     24363
     24359     24357     24360     24361     24359     24357     24360     24362
     24359     24357     24360     24363     24360     24363     24365     24366
     24360     24363     24365     24367     24361     24360     24363     24364
     24361     24360     24363     24365     24362     24360     24363     24364
     24362     24360     24363     24365     24363     24365     24367     24368
     24363     24365     24367     24369     24363     24365     24367     24370
     24364     24363     24365     24366     24364     24363     24365     24367
     24365     24367     24370     24371     24365     24367     24370     24372
     24365     24367     24370     24373     24366     24365     24367     24368
     24366     24365     24367     24369     24366     24365     24367     24370
     24367     24370     24373     24374     24367     24370     24373     24375
     24367     24370     24373     24376     24368     24367     24370     24371
     24368     24367     24370     24372     24368     24367     24370     24373
     24369     24367     24370     24371     24369     24367     24370     24372
     24369     24367     24370     24373     24370     24373     24376     24377
     24370     24373     24376     24378     24370     24373     24376     24379
     24371     24370     24373     24374     24371     24370     24373     24375
     24371     24370     24373     24376     24372     24370     24373     24374
     24372     24370     24373     24375     24372     24370     24373     24376
     24373     24376     24379     24380     24373     24376     24379     24381
     24373     24376     24379     24382     24374     24373     24376     24377
     24374     24373     24376     24378     24374     24373     24376     24379
     24375     24373     24376     24377     24375     24373     24376     24378
     24375     24373     24376     24379     24376     24379     24382     24383
     24376     24379     24382     24384     24376     24379     24382     24385
     24377     24376     24379     24380     24377     24376     24379     24381
     24377     24376     24379     24382     24378     24376     24379     24380
     24378     24376     24379     24381     24378     24376     24379     24382
     24379     24382     24385     24386     24379     24382     24385     24387
     24379     24382     24385     24388     24380     24379     24382     24383
     24380     24379     24382     24384     24380     24379     24382     24385
     24381     24379     24382     24383     24381     24379     24382     24384
     24381     24379     24382     24385     24382     24385     24388     24389
     24382     24385     24388     24390     24382     24385     24388     24391
     24383     24382     24385     24386     24383     24382     24385     24387
     24383     24382     24385     24388     24384     24382     24385     24386
     24384     24382     24385     24387     24384     24382     24385     24388
     24386     24385     24388     24389     24386     24385     24388     24390
     24386     24385     24388     24391     24387     24385     24388     24389
     24387     24385     24388     24390     24387     24385     24388     24391
     24392     24395     24398     24399     24392     24395     24398     24400
     24392     24395     24398     24401     24393     24392     24395     24396
     24393     24392     24395     24397     24393     24392     24395     24398
     24394     24392     24395     24396     24394     24392     24395     24397
     24394     24392     24395     24398     24395     24398     24401     24402
     24395     24398     24401     24403     24395     24398     24401     24404
     24396     24395     24398     24399     24396     24395     24398     24400
     24396     24395     24398     24401     24397     24395     24398     24399
     24397     24395     24398     24400     24397     24395     24398     24401
     24398     24401     24404     24405     24398     24401     24404     24406
     24398     24401     24404     24407     24399     24398     24401     24402
     24399     24398     24401     24403     24399     24398     24401     24404
     24400     24398     24401     24402     24400     24398     24401     24403
     24400     24398     24401     24404     24401     24404     24407     24408
     24401     24404     24407     24409     24401     24404     24407     24410
     24402     24401     24404     24405     24402     24401     24404     24406
     24402     24401     24404     24407     24403     24401     24404     24405
     24403     24401     24404     24406     24403     24401     24404     24407
     24404     24407     24410     24411     24404     24407     24410     24412
     24404     24407     24410     24413     24405     24404     24407     24408
     24405     24404     24407     24409     24405     24404     24407     24410
     24406     24404     24407     24408     24406     24404     24407     24409
     24406     24404     24407     24410     24407     24410     24413     24414
     24407     24410     24413     24415     24407     24410     24413     24416
     24408     24407     24410     24411     24408     24407     24410     24412
     24408     24407     24410     24413     24409     24407     24410     24411
     24409     24407     24410     24412     24409     24407     24410     24413
     24410     24413     24416     24417     24410     24413     24416     24418
     24410     24413     24416     24419     24411     24410     24413     24414
     24411     24410     24413     24415     24411     24410     24413     24416
     24412     24410     24413     24414     24412     24410     24413     24415
     24412     24410     24413     24416     24413     24416     24419     24420
     24413     24416     24419     24421     24413     24416     24419     24422
     24414     24413     24416     24417     24414     24413     24416     24418
     24414     24413     24416     24419     24415     24413     24416     24417
     24415     24413     24416     24418     24415     24413     24416     24419
     24416     24419     24422     24423     24416     24419     24422     24424
     24416     24419     24422     24425     24417     24416     24419     24420
     24417     24416     24419     24421     24417     24416     24419     24422
     24418     24416     24419     24420     24418     24416     24419     24421
     24418     24416     24419     24422     24419     24422     24425     24426
     24419     24422     24425     24427     24419     24422     24425     24428
     24420     24419     24422     24423     24420     24419     24422     24424
     24420     24419     24422     24425     24421     24419     24422     24423
     24421     24419     24422     24424     24421     24419     24422     24425
     24422     24425     24428     24429     24422     24425     24428     24430
     24422     24425     24428     24431     24423     24422     24425     24426
     24423     24422     24425     24427     24423     24422     24425     24428
     24424     24422     24425     24426     24424     24422     24425     24427
     24424     24422     24425     24428     24425     24428     24431     24432
     24425     24428     24431     24433     24425     24428     24431     24434
     24426     24425     24428     24429     24426     24425     24428     24430
     24426     24425     24428     24431     24427     24425     24428     24429
     24427     24425     24428     24430     24427     24425     24428     24431
     24429     24428     24431     24432     24429     24428     24431     24433
     24429     24428     24431     24434     24430     24428     24431     24432
     24430     24428     24431     24433     24430     24428     24431     24434
     24435     24439     24442     24443     24435     24439     24442     24444
     24435     24439     24442     24449     24436     24435     24439     24440
     24436     24435     24439     24441     24436     24435     24439     24442
     24437     24435     24439     24440     24437     24435     24439     24441
     24437     24435     24439     24442     24438     24435     24439     24440
     24438     24435     24439     24441     24438     24435     24439     24442
     24439     24442     24449     24445     24440     24439     24442     24443
     24440     24439     24442     24444     24440     24439     24442     24449
     24441     24439     24442     24443     24441     24439     24442     24444
     24441     24439     24442     24449     24442     24449     24445     24446
     24442     24449     24445     24447     24442     24449     24445     24448
     24443     24442     24449     24445     24444     24442     24449     24445
     24445     24448     24450     24451     24445     24448     24450     24452
     24445     24448     24450     24453     24446     24445     24448     24450
     24447     24445     24448     24450     24448     24450     24453     24454
     24448     24450     24453     24455     24448     24450     24453     24461
     24449     24445     24448     24450     24450     24453     24455     24456
     24450     24453     24461     24462     24450     24453     24461     24463
     24450     24453     24461     24464     24451     24450     24453     24454
     24451     24450     24453     24455     24451     24450     24453     24461
     24452     24450     24453     24454     24452     24450     24453     24455
     24452     24450     24453     24461     24453     24455     24456     24457
     24453     24455     24456     24458     24453     24461     24464     24465
     24454     24453     24455     24456     24454     24453     24461     24462
     24454     24453     24461     24463     24454     24453     24461     24464
     24455     24453     24461     24462     24455     24453     24461     24463
     24455     24453     24461     24464     24455     24456     24458     24459
     24455     24456     24458     24460     24455     24456     24458     24470
     24456     24455     24453     24461     24456     24458     24470     24471
     24456     24458     24470     24472     24456     24458     24470     24473
     24457     24456     24458     24459     24457     24456     24458     24460
     24457     24456     24458     24470     24458     24470     24473     24474
     24458     24470     24473     24475     24458     24470     24473     24476
     24459     24458     24470     24471     24459     24458     24470     24472
     24459     24458     24470     24473     24460     24458     24470     24471
     24460     24458     24470     24472     24460     24458     24470     24473
     24461     24464     24465     24466     24461     24464     24465     24467
     24462     24461     24464     24465     24463     24461     24464     24465
     24464     24465     24467     24468     24464     24465     24467     24469
     24464     24465     24467     24514     24465     24467     24514     24515
     24465     24467     24514     24516     24465     24467     24514     24517
     24466     24465     24467     24468     24466     24465     24467     24469
     24466     24465     24467     24514     24467     24514     24517     24518
     24467     24514     24517     24519     24467     24514     24517     24520
     24468     24467     24514     24515     24468     24467     24514     24516
     24468     24467     24514     24517     24469     24467     24514     24515
     24469     24467     24514     24516     24469     24467     24514     24517
     24470     24473     24476     24477     24470     24473     24476     24478
     24470     24473     24476     24479     24471     24470     24473     24474
     24471     24470     24473     24475     24471     24470     24473     24476
     24472     24470     24473     24474     24472     24470     24473     24475
     24472     24470     24473     24476     24473     24476     24479     24480
     24473     24476     24479     24481     24473     24476     24479     24482
     24474     24473     24476     24477     24474     24473     24476     24478
     24474     24473     24476     24479     24475     24473     24476     24477
     24475     24473     24476     24478     24475     24473     24476     24479
     24476     24479     24482     24483     24476     24479     24482     24484
     24476     24479     24482     24485     24477     24476     24479     24480
     24477     24476     24479     24481     24477     24476     24479     24482
     24478     24476     24479     24480     24478     24476     24479     24481
     24478     24476     24479     24482     24479     24482     24485     24486
     24479     24482     24485     24487     24479     24482     24485     24488
     24480     24479     24482     24483     24480     24479     24482     24484
     24480     24479     24482     24485     24481     24479     24482     24483
     24481     24479     24482     24484     24481     24479     24482     24485
     24482     24485     24488     24489     24482     24485     24488     24490
     24482     24485     24488     24493     24483     24482     24485     24486
     24483     24482     24485     24487     24483     24482     24485     24488
     24484     24482     24485     24486     24484     24482     24485     24487
     24484     24482     24485     24488     24485     24488     24490     24491
     24485     24488     24490     24492     24485     24488     24490     24493
     24485     24488     24493     24490     24485     24488     24493     24494
     24485     24488     24493     24495     24486     24485     24488     24489
     24486     24485     24488     24490     24486     24485     24488     24493
     24487     24485     24488     24489     24487     24485     24488     24490
     24487     24485     24488     24493     24488     24490     24493     24494
     24488     24490     24493     24495     24488     24493     24490     24491
     24488     24493     24490     24492     24488     24493     24495     24496
     24488     24493     24495     24497     24488     24493     24495     24498
     24489     24488     24490     24491     24489     24488     24490     24492
     24489     24488     24490     24493     24489     24488     24493     24490
     24489     24488     24493     24494     24489     24488     24493     24495
     24490     24488     24493     24494     24490     24488     24493     24495
     24490     24493     24495     24496     24490     24493     24495     24497
     24490     24493     24495     24498     24491     24490     24488     24493
     24491     24490     24493     24494     24491     24490     24493     24495
     24492     24490     24488     24493     24492     24490     24493     24494
     24492     24490     24493     24495     24493     24495     24498     24499
     24493     24495     24498     24500     24493     24495     24498     24501
     24494     24493     24495     24496     24494     24493     24495     24497
     24494     24493     24495     24498     24495     24498     24501     24502
     24495     24498     24501     24503     24495     24498     24501     24504
     24496     24495     24498     24499     24496     24495     24498     24500
     24496     24495     24498     24501     24497     24495     24498     24499
     24497     24495     24498     24500     24497     24495     24498     24501
     24498     24501     24504     24505     24498     24501     24504     24506
     24498     24501     24504     24507     24499     24498     24501     24502
     24499     24498     24501     24503     24499     24498     24501     24504
     24500     24498     24501     24502     24500     24498     24501     24503
     24500     24498     24501     24504     24501     24504     24507     24508
     24501     24504     24507     24509     24501     24504     24507     24510
     24502     24501     24504     24505     24502     24501     24504     24506
     24502     24501     24504     24507     24503     24501     24504     24505
     24503     24501     24504     24506     24503     24501     24504     24507
     24504     24507     24510     24511     24504     24507     24510     24512
     24504     24507     24510     24513     24505     24504     24507     24508
     24505     24504     24507     24509     24505     24504     24507     24510
     24506     24504     24507     24508     24506     24504     24507     24509
     24506     24504     24507     24510     24508     24507     24510     24511
     24508     24507     24510     24512     24508     24507     24510     24513
     24509     24507     24510     24511     24509     24507     24510     24512
     24509     24507     24510     24513     24514     24517     24520     24521
     24514     24517     24520     24522     24514     24517     24520     24523
     24515     24514     24517     24518     24515     24514     24517     24519
     24515     24514     24517     24520     24516     24514     24517     24518
     24516     24514     24517     24519     24516     24514     24517     24520
     24517     24520     24523     24524     24517     24520     24523     24525
     24517     24520     24523     24526     24518     24517     24520     24521
     24518     24517     24520     24522     24518     24517     24520     24523
     24519     24517     24520     24521     24519     24517     24520     24522
     24519     24517     24520     24523     24520     24523     24526     24527
     24520     24523     24526     24528     24520     24523     24526     24529
     24521     24520     24523     24524     24521     24520     24523     24525
     24521     24520     24523     24526     24522     24520     24523     24524
     24522     24520     24523     24525     24522     24520     24523     24526
     24523     24526     24529     24530     24523     24526     24529     24531
     24523     24526     24529     24532     24524     24523     24526     24527
     24524     24523     24526     24528     24524     24523     24526     24529
     24525     24523     24526     24527     24525     24523     24526     24528
     24525     24523     24526     24529     24526     24529     24532     24533
     24526     24529     24532     24534     24526     24529     24532     24535
     24527     24526     24529     24530     24527     24526     24529     24531
     24527     24526     24529     24532     24528     24526     24529     24530
     24528     24526     24529     24531     24528     24526     24529     24532
     24529     24532     24535     24536     24529     24532     24535     24537
     24529     24532     24535     24538     24530     24529     24532     24533
     24530     24529     24532     24534     24530     24529     24532     24535
     24531     24529     24532     24533     24531     24529     24532     24534
     24531     24529     24532     24535     24532     24535     24538     24539
     24532     24535     24538     24540     24532     24535     24538     24541
     24533     24532     24535     24536     24533     24532     24535     24537
     24533     24532     24535     24538     24534     24532     24535     24536
     24534     24532     24535     24537     24534     24532     24535     24538
     24535     24538     24541     24542     24535     24538     24541     24543
     24535     24538     24541     24544     24536     24535     24538     24539
     24536     24535     24538     24540     24536     24535     24538     24541
     24537     24535     24538     24539     24537     24535     24538     24540
     24537     24535     24538     24541     24538     24541     24544     24545
     24538     24541     24544     24546     24538     24541     24544     24547
     24539     24538     24541     24542     24539     24538     24541     24543
     24539     24538     24541     24544     24540     24538     24541     24542
     24540     24538     24541     24543     24540     24538     24541     24544
     24541     24544     24547     24548     24541     24544     24547     24549
     24541     24544     24547     24550     24542     24541     24544     24545
     24542     24541     24544     24546     24542     24541     24544     24547
     24543     24541     24544     24545     24543     24541     24544     24546
     24543     24541     24544     24547     24544     24547     24550     24551
     24544     24547     24550     24552     24544     24547     24550     24553
     24545     24544     24547     24548     24545     24544     24547     24549
     24545     24544     24547     24550     24546     24544     24547     24548
     24546     24544     24547     24549     24546     24544     24547     24550
     24547     24550     24553     24554     24547     24550     24553     24555
     24547     24550     24553     24556     24548     24547     24550     24551
     24548     24547     24550     24552     24548     24547     24550     24553
     24549     24547     24550     24551     24549     24547     24550     24552
     24549     24547     24550     24553     24551     24550     24553     24554
     24551     24550     24553     24555     24551     24550     24553     24556
     24552     24550     24553     24554     24552     24550     24553     24555
     24552     24550     24553     24556     24557     24561     24564     24565
     24557     24561     24564     24566     24557     24561     24564     24571
     24558     24557     24561     24562     24558     24557     24561     24563
     24558     24557     24561     24564     24559     24557     24561     24562
     24559     24557     24561     24563     24559     24557     24561     24564
     24560     24557     24561     24562     24560     24557     24561     24563
     24560     24557     24561     24564     24561     24564     24571     24567
     24562     24561     24564     24565     24562     24561     24564     24566
     24562     24561     24564     24571     24563     24561     24564     24565
     24563     24561     24564     24566     24563     24561     24564     24571
     24564     24571     24567     24568     24564     24571     24567     24569
     24564     24571     24567     24570     24565     24564     24571     24567
     24566     24564     24571     24567     24567     24570     24572     24573
     24567     24570     24572     24574     24567     24570     24572     24575
     24568     24567     24570     24572     24569     24567     24570     24572
     24570     24572     24575     24576     24570     24572     24575     24577
     24570     24572     24575     24583     24571     24567     24570     24572
     24572     24575     24577     24578     24572     24575     24583     24584
     24572     24575     24583     24585     24572     24575     24583     24586
     24573     24572     24575     24576     24573     24572     24575     24577
     24573     24572     24575     24583     24574     24572     24575     24576
     24574     24572     24575     24577     24574     24572     24575     24583
     24575     24577     24578     24579     24575     24577     24578     24580
     24575     24583     24586     24587     24576     24575     24577     24578
     24576     24575     24583     24584     24576     24575     24583     24585
     24576     24575     24583     24586     24577     24575     24583     24584
     24577     24575     24583     24585     24577     24575     24583     24586
     24577     24578     24580     24581     24577     24578     24580     24582
     24577     24578     24580     24592     24578     24577     24575     24583
     24578     24580     24592     24593     24578     24580     24592     24594
     24578     24580     24592     24595     24579     24578     24580     24581
     24579     24578     24580     24582     24579     24578     24580     24592
     24580     24592     24595     24596     24580     24592     24595     24597
     24580     24592     24595     24598     24581     24580     24592     24593
     24581     24580     24592     24594     24581     24580     24592     24595
     24582     24580     24592     24593     24582     24580     24592     24594
     24582     24580     24592     24595     24583     24586     24587     24588
     24583     24586     24587     24589     24584     24583     24586     24587
     24585     24583     24586     24587     24586     24587     24589     24590
     24586     24587     24589     24591     24586     24587     24589     24636
     24587     24589     24636     24637     24587     24589     24636     24638
     24587     24589     24636     24639     24588     24587     24589     24590
     24588     24587     24589     24591     24588     24587     24589     24636
     24589     24636     24639     24640     24589     24636     24639     24641
     24589     24636     24639     24642     24590     24589     24636     24637
     24590     24589     24636     24638     24590     24589     24636     24639
     24591     24589     24636     24637     24591     24589     24636     24638
     24591     24589     24636     24639     24592     24595     24598     24599
     24592     24595     24598     24600     24592     24595     24598     24601
     24593     24592     24595     24596     24593     24592     24595     24597
     24593     24592     24595     24598     24594     24592     24595     24596
     24594     24592     24595     24597     24594     24592     24595     24598
     24595     24598     24601     24602     24595     24598     24601     24603
     24595     24598     24601     24604     24596     24595     24598     24599
     24596     24595     24598     24600     24596     24595     24598     24601
     24597     24595     24598     24599     24597     24595     24598     24600
     24597     24595     24598     24601     24598     24601     24604     24605
     24598     24601     24604     24606     24598     24601     24604     24607
     24599     24598     24601     24602     24599     24598     24601     24603
     24599     24598     24601     24604     24600     24598     24601     24602
     24600     24598     24601     24603     24600     24598     24601     24604
     24601     24604     24607     24608     24601     24604     24607     24609
     24601     24604     24607     24610     24602     24601     24604     24605
     24602     24601     24604     24606     24602     24601     24604     24607
     24603     24601     24604     24605     24603     24601     24604     24606
     24603     24601     24604     24607     24604     24607     24610     24611
     24604     24607     24610     24612     24604     24607     24610     24615
     24605     24604     24607     24608     24605     24604     24607     24609
     24605     24604     24607     24610     24606     24604     24607     24608
     24606     24604     24607     24609     24606     24604     24607     24610
     24607     24610     24612     24613     24607     24610     24612     24614
     24607     24610     24612     24615     24607     24610     24615     24612
     24607     24610     24615     24616     24607     24610     24615     24617
     24608     24607     24610     24611     24608     24607     24610     24612
     24608     24607     24610     24615     24609     24607     24610     24611
     24609     24607     24610     24612     24609     24607     24610     24615
     24610     24612     24615     24616     24610     24612     24615     24617
     24610     24615     24612     24613     24610     24615     24612     24614
     24610     24615     24617     24618     24610     24615     24617     24619
     24610     24615     24617     24620     24611     24610     24612     24613
     24611     24610     24612     24614     24611     24610     24612     24615
     24611     24610     24615     24612     24611     24610     24615     24616
     24611     24610     24615     24617     24612     24610     24615     24616
     24612     24610     24615     24617     24612     24615     24617     24618
     24612     24615     24617     24619     24612     24615     24617     24620
     24613     24612     24610     24615     24613     24612     24615     24616
     24613     24612     24615     24617     24614     24612     24610     24615
     24614     24612     24615     24616     24614     24612     24615     24617
     24615     24617     24620     24621     24615     24617     24620     24622
     24615     24617     24620     24623     24616     24615     24617     24618
     24616     24615     24617     24619     24616     24615     24617     24620
     24617     24620     24623     24624     24617     24620     24623     24625
     24617     24620     24623     24626     24618     24617     24620     24621
     24618     24617     24620     24622     24618     24617     24620     24623
     24619     24617     24620     24621     24619     24617     24620     24622
     24619     24617     24620     24623     24620     24623     24626     24627
     24620     24623     24626     24628     24620     24623     24626     24629
     24621     24620     24623     24624     24621     24620     24623     24625
     24621     24620     24623     24626     24622     24620     24623     24624
     24622     24620     24623     24625     24622     24620     24623     24626
     24623     24626     24629     24630     24623     24626     24629     24631
     24623     24626     24629     24632     24624     24623     24626     24627
     24624     24623     24626     24628     24624     24623     24626     24629
     24625     24623     24626     24627     24625     24623     24626     24628
     24625     24623     24626     24629     24626     24629     24632     24633
     24626     24629     24632     24634     24626     24629     24632     24635
     24627     24626     24629     24630     24627     24626     24629     24631
     24627     24626     24629     24632     24628     24626     24629     24630
     24628     24626     24629     24631     24628     24626     24629     24632
     24630     24629     24632     24633     24630     24629     24632     24634
     24630     24629     24632     24635     24631     24629     24632     24633
     24631     24629     24632     24634     24631     24629     24632     24635
     24636     24639     24642     24643     24636     24639     24642     24644
     24636     24639     24642     24645     24637     24636     24639     24640
     24637     24636     24639     24641     24637     24636     24639     24642
     24638     24636     24639     24640     24638     24636     24639     24641
     24638     24636     24639     24642     24639     24642     24645     24646
     24639     24642     24645     24647     24639     24642     24645     24648
     24640     24639     24642     24643     24640     24639     24642     24644
     24640     24639     24642     24645     24641     24639     24642     24643
     24641     24639     24642     24644     24641     24639     24642     24645
     24642     24645     24648     24649     24642     24645     24648     24650
     24642     24645     24648     24651     24643     24642     24645     24646
     24643     24642     24645     24647     24643     24642     24645     24648
     24644     24642     24645     24646     24644     24642     24645     24647
     24644     24642     24645     24648     24645     24648     24651     24652
     24645     24648     24651     24653     24645     24648     24651     24654
     24646     24645     24648     24649     24646     24645     24648     24650
     24646     24645     24648     24651     24647     24645     24648     24649
     24647     24645     24648     24650     24647     24645     24648     24651
     24648     24651     24654     24655     24648     24651     24654     24656
     24648     24651     24654     24657     24649     24648     24651     24652
     24649     24648     24651     24653     24649     24648     24651     24654
     24650     24648     24651     24652     24650     24648     24651     24653
     24650     24648     24651     24654     24651     24654     24657     24658
     24651     24654     24657     24659     24651     24654     24657     24660
     24652     24651     24654     24655     24652     24651     24654     24656
     24652     24651     24654     24657     24653     24651     24654     24655
     24653     24651     24654     24656     24653     24651     24654     24657
     24654     24657     24660     24661     24654     24657     24660     24662
     24654     24657     24660     24663     24655     24654     24657     24658
     24655     24654     24657     24659     24655     24654     24657     24660
     24656     24654     24657     24658     24656     24654     24657     24659
     24656     24654     24657     24660     24657     24660     24663     24664
     24657     24660     24663     24665     24657     24660     24663     24666
     24658     24657     24660     24661     24658     24657     24660     24662
     24658     24657     24660     24663     24659     24657     24660     24661
     24659     24657     24660     24662     24659     24657     24660     24663
     24660     24663     24666     24667     24660     24663     24666     24668
     24660     24663     24666     24669     24661     24660     24663     24664
     24661     24660     24663     24665     24661     24660     24663     24666
     24662     24660     24663     24664     24662     24660     24663     24665
     24662     24660     24663     24666     24663     24666     24669     24670
     24663     24666     24669     24671     24663     24666     24669     24672
     24664     24663     24666     24667     24664     24663     24666     24668
     24664     24663     24666     24669     24665     24663     24666     24667
     24665     24663     24666     24668     24665     24663     24666     24669
     24666     24669     24672     24673     24666     24669     24672     24674
     24666     24669     24672     24675     24667     24666     24669     24670
     24667     24666     24669     24671     24667     24666     24669     24672
     24668     24666     24669     24670     24668     24666     24669     24671
     24668     24666     24669     24672     24670     24669     24672     24673
     24670     24669     24672     24674     24670     24669     24672     24675
     24671     24669     24672     24673     24671     24669     24672     24674
     24671     24669     24672     24675     24676     24680     24683     24684
     24676     24680     24683     24685     24676     24680     24683     24690
     24677     24676     24680     24681     24677     24676     24680     24682
     24677     24676     24680     24683     24678     24676     24680     24681
     24678     24676     24680     24682     24678     24676     24680     24683
     24679     24676     24680     24681     24679     24676     24680     24682
     24679     24676     24680     24683     24680     24683     24690     24686
     24681     24680     24683     24684     24681     24680     24683     24685
     24681     24680     24683     24690     24682     24680     24683     24684
     24682     24680     24683     24685     24682     24680     24683     24690
     24683     24690     24686     24687     24683     24690     24686     24688
     24683     24690     24686     24689     24684     24683     24690     24686
     24685     24683     24690     24686     24686     24689     24691     24692
     24686     24689     24691     24693     24686     24689     24691     24694
     24687     24686     24689     24691     24688     24686     24689     24691
     24689     24691     24694     24695     24689     24691     24694     24696
     24689     24691     24694     24702     24690     24686     24689     24691
     24691     24694     24696     24697     24691     24694     24702     24703
     24691     24694     24702     24704     24691     24694     24702     24705
     24692     24691     24694     24695     24692     24691     24694     24696
     24692     24691     24694     24702     24693     24691     24694     24695
     24693     24691     24694     24696     24693     24691     24694     24702
     24694     24696     24697     24698     24694     24696     24697     24699
     24694     24702     24705     24706     24695     24694     24696     24697
     24695     24694     24702     24703     24695     24694     24702     24704
     24695     24694     24702     24705     24696     24694     24702     24703
     24696     24694     24702     24704     24696     24694     24702     24705
     24696     24697     24699     24700     24696     24697     24699     24701
     24696     24697     24699     24711     24697     24696     24694     24702
     24697     24699     24711     24712     24697     24699     24711     24713
     24697     24699     24711     24714     24698     24697     24699     24700
     24698     24697     24699     24701     24698     24697     24699     24711
     24699     24711     24714     24715     24699     24711     24714     24716
     24699     24711     24714     24717     24700     24699     24711     24712
     24700     24699     24711     24713     24700     24699     24711     24714
     24701     24699     24711     24712     24701     24699     24711     24713
     24701     24699     24711     24714     24702     24705     24706     24707
     24702     24705     24706     24708     24703     24702     24705     24706
     24704     24702     24705     24706     24705     24706     24708     24709
     24705     24706     24708     24710     24705     24706     24708     24755
     24706     24708     24755     24756     24706     24708     24755     24757
     24706     24708     24755     24758     24707     24706     24708     24709
     24707     24706     24708     24710     24707     24706     24708     24755
     24708     24755     24758     24759     24708     24755     24758     24760
     24708     24755     24758     24761     24709     24708     24755     24756
     24709     24708     24755     24757     24709     24708     24755     24758
     24710     24708     24755     24756     24710     24708     24755     24757
     24710     24708     24755     24758     24711     24714     24717     24718
     24711     24714     24717     24719     24711     24714     24717     24720
     24712     24711     24714     24715     24712     24711     24714     24716
     24712     24711     24714     24717     24713     24711     24714     24715
     24713     24711     24714     24716     24713     24711     24714     24717
     24714     24717     24720     24721     24714     24717     24720     24722
     24714     24717     24720     24723     24715     24714     24717     24718
     24715     24714     24717     24719     24715     24714     24717     24720
     24716     24714     24717     24718     24716     24714     24717     24719
     24716     24714     24717     24720     24717     24720     24723     24724
     24717     24720     24723     24725     24717     24720     24723     24726
     24718     24717     24720     24721     24718     24717     24720     24722
     24718     24717     24720     24723     24719     24717     24720     24721
     24719     24717     24720     24722     24719     24717     24720     24723
     24720     24723     24726     24727     24720     24723     24726     24728
     24720     24723     24726     24729     24721     24720     24723     24724
     24721     24720     24723     24725     24721     24720     24723     24726
     24722     24720     24723     24724     24722     24720     24723     24725
     24722     24720     24723     24726     24723     24726     24729     24730
     24723     24726     24729     24731     24723     24726     24729     24734
     24724     24723     24726     24727     24724     24723     24726     24728
     24724     24723     24726     24729     24725     24723     24726     24727
     24725     24723     24726     24728     24725     24723     24726     24729
     24726     24729     24731     24732     24726     24729     24731     24733
     24726     24729     24731     24734     24726     24729     24734     24731
     24726     24729     24734     24735     24726     24729     24734     24736
     24727     24726     24729     24730     24727     24726     24729     24731
     24727     24726     24729     24734     24728     24726     24729     24730
     24728     24726     24729     24731     24728     24726     24729     24734
     24729     24731     24734     24735     24729     24731     24734     24736
     24729     24734     24731     24732     24729     24734     24731     24733
     24729     24734     24736     24737     24729     24734     24736     24738
     24729     24734     24736     24739     24730     24729     24731     24732
     24730     24729     24731     24733     24730     24729     24731     24734
     24730     24729     24734     24731     24730     24729     24734     24735
     24730     24729     24734     24736     24731     24729     24734     24735
     24731     24729     24734     24736     24731     24734     24736     24737
     24731     24734     24736     24738     24731     24734     24736     24739
     24732     24731     24729     24734     24732     24731     24734     24735
     24732     24731     24734     24736     24733     24731     24729     24734
     24733     24731     24734     24735     24733     24731     24734     24736
     24734     24736     24739     24740     24734     24736     24739     24741
     24734     24736     24739     24742     24735     24734     24736     24737
     24735     24734     24736     24738     24735     24734     24736     24739
     24736     24739     24742     24743     24736     24739     24742     24744
     24736     24739     24742     24745     24737     24736     24739     24740
     24737     24736     24739     24741     24737     24736     24739     24742
     24738     24736     24739     24740     24738     24736     24739     24741
     24738     24736     24739     24742     24739     24742     24745     24746
     24739     24742     24745     24747     24739     24742     24745     24748
     24740     24739     24742     24743     24740     24739     24742     24744
     24740     24739     24742     24745     24741     24739     24742     24743
     24741     24739     24742     24744     24741     24739     24742     24745
     24742     24745     24748     24749     24742     24745     24748     24750
     24742     24745     24748     24751     24743     24742     24745     24746
     24743     24742     24745     24747     24743     24742     24745     24748
     24744     24742     24745     24746     24744     24742     24745     24747
     24744     24742     24745     24748     24745     24748     24751     24752
     24745     24748     24751     24753     24745     24748     24751     24754
     24746     24745     24748     24749     24746     24745     24748     24750
     24746     24745     24748     24751     24747     24745     24748     24749
     24747     24745     24748     24750     24747     24745     24748     24751
     24749     24748     24751     24752     24749     24748     24751     24753
     24749     24748     24751     24754     24750     24748     24751     24752
     24750     24748     24751     24753     24750     24748     24751     24754
     24755     24758     24761     24762     24755     24758     24761     24763
     24755     24758     24761     24764     24756     24755     24758     24759
     24756     24755     24758     24760     24756     24755     24758     24761
     24757     24755     24758     24759     24757     24755     24758     24760
     24757     24755     24758     24761     24758     24761     24764     24765
     24758     24761     24764     24766     24758     24761     24764     24767
     24759     24758     24761     24762     24759     24758     24761     24763
     24759     24758     24761     24764     24760     24758     24761     24762
     24760     24758     24761     24763     24760     24758     24761     24764
     24761     24764     24767     24768     24761     24764     24767     24769
     24761     24764     24767     24770     24762     24761     24764     24765
     24762     24761     24764     24766     24762     24761     24764     24767
     24763     24761     24764     24765     24763     24761     24764     24766
     24763     24761     24764     24767     24764     24767     24770     24771
     24764     24767     24770     24772     24764     24767     24770     24773
     24765     24764     24767     24768     24765     24764     24767     24769
     24765     24764     24767     24770     24766     24764     24767     24768
     24766     24764     24767     24769     24766     24764     24767     24770
     24767     24770     24773     24774     24767     24770     24773     24775
     24767     24770     24773     24776     24768     24767     24770     24771
     24768     24767     24770     24772     24768     24767     24770     24773
     24769     24767     24770     24771     24769     24767     24770     24772
     24769     24767     24770     24773     24770     24773     24776     24777
     24770     24773     24776     24778     24770     24773     24776     24779
     24771     24770     24773     24774     24771     24770     24773     24775
     24771     24770     24773     24776     24772     24770     24773     24774
     24772     24770     24773     24775     24772     24770     24773     24776
     24773     24776     24779     24780     24773     24776     24779     24781
     24773     24776     24779     24782     24774     24773     24776     24777
     24774     24773     24776     24778     24774     24773     24776     24779
     24775     24773     24776     24777     24775     24773     24776     24778
     24775     24773     24776     24779     24776     24779     24782     24783
     24776     24779     24782     24784     24776     24779     24782     24785
     24777     24776     24779     24780     24777     24776     24779     24781
     24777     24776     24779     24782     24778     24776     24779     24780
     24778     24776     24779     24781     24778     24776     24779     24782
     24779     24782     24785     24786     24779     24782     24785     24787
     24779     24782     24785     24788     24780     24779     24782     24783
     24780     24779     24782     24784     24780     24779     24782     24785
     24781     24779     24782     24783     24781     24779     24782     24784
     24781     24779     24782     24785     24782     24785     24788     24789
     24782     24785     24788     24790     24782     24785     24788     24791
     24783     24782     24785     24786     24783     24782     24785     24787
     24783     24782     24785     24788     24784     24782     24785     24786
     24784     24782     24785     24787     24784     24782     24785     24788
     24785     24788     24791     24792     24785     24788     24791     24793
     24785     24788     24791     24794     24786     24785     24788     24789
     24786     24785     24788     24790     24786     24785     24788     24791
     24787     24785     24788     24789     24787     24785     24788     24790
     24787     24785     24788     24791     24788     24791     24794     24795
     24788     24791     24794     24796     24788     24791     24794     24797
     24789     24788     24791     24792     24789     24788     24791     24793
     24789     24788     24791     24794     24790     24788     24791     24792
     24790     24788     24791     24793     24790     24788     24791     24794
     24792     24791     24794     24795     24792     24791     24794     24796
     24792     24791     24794     24797     24793     24791     24794     24795
     24793     24791     24794     24796     24793     24791     24794     24797
     24798     24802     24805     24806     24798     24802     24805     24807
     24798     24802     24805     24812     24799     24798     24802     24803
     24799     24798     24802     24804     24799     24798     24802     24805
     24800     24798     24802     24803     24800     24798     24802     24804
     24800     24798     24802     24805     24801     24798     24802     24803
     24801     24798     24802     24804     24801     24798     24802     24805
     24802     24805     24812     24808     24803     24802     24805     24806
     24803     24802     24805     24807     24803     24802     24805     24812
     24804     24802     24805     24806     24804     24802     24805     24807
     24804     24802     24805     24812     24805     24812     24808     24809
     24805     24812     24808     24810     24805     24812     24808     24811
     24806     24805     24812     24808     24807     24805     24812     24808
     24808     24811     24813     24814     24808     24811     24813     24815
     24808     24811     24813     24816     24809     24808     24811     24813
     24810     24808     24811     24813     24811     24813     24816     24817
     24811     24813     24816     24818     24811     24813     24816     24824
     24812     24808     24811     24813     24813     24816     24818     24819
     24813     24816     24824     24825     24813     24816     24824     24826
     24813     24816     24824     24827     24814     24813     24816     24817
     24814     24813     24816     24818     24814     24813     24816     24824
     24815     24813     24816     24817     24815     24813     24816     24818
     24815     24813     24816     24824     24816     24818     24819     24820
     24816     24818     24819     24821     24816     24824     24827     24828
     24817     24816     24818     24819     24817     24816     24824     24825
     24817     24816     24824     24826     24817     24816     24824     24827
     24818     24816     24824     24825     24818     24816     24824     24826
     24818     24816     24824     24827     24818     24819     24821     24822
     24818     24819     24821     24823     24818     24819     24821     24833
     24819     24818     24816     24824     24819     24821     24833     24834
     24819     24821     24833     24835     24819     24821     24833     24836
     24820     24819     24821     24822     24820     24819     24821     24823
     24820     24819     24821     24833     24821     24833     24836     24837
     24821     24833     24836     24838     24821     24833     24836     24839
     24822     24821     24833     24834     24822     24821     24833     24835
     24822     24821     24833     24836     24823     24821     24833     24834
     24823     24821     24833     24835     24823     24821     24833     24836
     24824     24827     24828     24829     24824     24827     24828     24830
     24825     24824     24827     24828     24826     24824     24827     24828
     24827     24828     24830     24831     24827     24828     24830     24832
     24827     24828     24830     24877     24828     24830     24877     24878
     24828     24830     24877     24879     24828     24830     24877     24880
     24829     24828     24830     24831     24829     24828     24830     24832
     24829     24828     24830     24877     24830     24877     24880     24881
     24830     24877     24880     24882     24830     24877     24880     24883
     24831     24830     24877     24878     24831     24830     24877     24879
     24831     24830     24877     24880     24832     24830     24877     24878
     24832     24830     24877     24879     24832     24830     24877     24880
     24833     24836     24839     24840     24833     24836     24839     24841
     24833     24836     24839     24842     24834     24833     24836     24837
     24834     24833     24836     24838     24834     24833     24836     24839
     24835     24833     24836     24837     24835     24833     24836     24838
     24835     24833     24836     24839     24836     24839     24842     24843
     24836     24839     24842     24844     24836     24839     24842     24845
     24837     24836     24839     24840     24837     24836     24839     24841
     24837     24836     24839     24842     24838     24836     24839     24840
     24838     24836     24839     24841     24838     24836     24839     24842
     24839     24842     24845     24846     24839     24842     24845     24847
     24839     24842     24845     24848     24840     24839     24842     24843
     24840     24839     24842     24844     24840     24839     24842     24845
     24841     24839     24842     24843     24841     24839     24842     24844
     24841     24839     24842     24845     24842     24845     24848     24849
     24842     24845     24848     24850     24842     24845     24848     24851
     24843     24842     24845     24846     24843     24842     24845     24847
     24843     24842     24845     24848     24844     24842     24845     24846
     24844     24842     24845     24847     24844     24842     24845     24848
     24845     24848     24851     24852     24845     24848     24851     24853
     24845     24848     24851     24856     24846     24845     24848     24849
     24846     24845     24848     24850     24846     24845     24848     24851
     24847     24845     24848     24849     24847     24845     24848     24850
     24847     24845     24848     24851     24848     24851     24853     24854
     24848     24851     24853     24855     24848     24851     24853     24856
     24848     24851     24856     24853     24848     24851     24856     24857
     24848     24851     24856     24858     24849     24848     24851     24852
     24849     24848     24851     24853     24849     24848     24851     24856
     24850     24848     24851     24852     24850     24848     24851     24853
     24850     24848     24851     24856     24851     24853     24856     24857
     24851     24853     24856     24858     24851     24856     24853     24854
     24851     24856     24853     24855     24851     24856     24858     24859
     24851     24856     24858     24860     24851     24856     24858     24861
     24852     24851     24853     24854     24852     24851     24853     24855
     24852     24851     24853     24856     24852     24851     24856     24853
     24852     24851     24856     24857     24852     24851     24856     24858
     24853     24851     24856     24857     24853     24851     24856     24858
     24853     24856     24858     24859     24853     24856     24858     24860
     24853     24856     24858     24861     24854     24853     24851     24856
     24854     24853     24856     24857     24854     24853     24856     24858
     24855     24853     24851     24856     24855     24853     24856     24857
     24855     24853     24856     24858     24856     24858     24861     24862
     24856     24858     24861     24863     24856     24858     24861     24864
     24857     24856     24858     24859     24857     24856     24858     24860
     24857     24856     24858     24861     24858     24861     24864     24865
     24858     24861     24864     24866     24858     24861     24864     24867
     24859     24858     24861     24862     24859     24858     24861     24863
     24859     24858     24861     24864     24860     24858     24861     24862
     24860     24858     24861     24863     24860     24858     24861     24864
     24861     24864     24867     24868     24861     24864     24867     24869
     24861     24864     24867     24870     24862     24861     24864     24865
     24862     24861     24864     24866     24862     24861     24864     24867
     24863     24861     24864     24865     24863     24861     24864     24866
     24863     24861     24864     24867     24864     24867     24870     24871
     24864     24867     24870     24872     24864     24867     24870     24873
     24865     24864     24867     24868     24865     24864     24867     24869
     24865     24864     24867     24870     24866     24864     24867     24868
     24866     24864     24867     24869     24866     24864     24867     24870
     24867     24870     24873     24874     24867     24870     24873     24875
     24867     24870     24873     24876     24868     24867     24870     24871
     24868     24867     24870     24872     24868     24867     24870     24873
     24869     24867     24870     24871     24869     24867     24870     24872
     24869     24867     24870     24873     24871     24870     24873     24874
     24871     24870     24873     24875     24871     24870     24873     24876
     24872     24870     24873     24874     24872     24870     24873     24875
     24872     24870     24873     24876     24877     24880     24883     24884
     24877     24880     24883     24885     24877     24880     24883     24886
     24878     24877     24880     24881     24878     24877     24880     24882
     24878     24877     24880     24883     24879     24877     24880     24881
     24879     24877     24880     24882     24879     24877     24880     24883
     24880     24883     24886     24887     24880     24883     24886     24888
     24880     24883     24886     24889     24881     24880     24883     24884
     24881     24880     24883     24885     24881     24880     24883     24886
     24882     24880     24883     24884     24882     24880     24883     24885
     24882     24880     24883     24886     24883     24886     24889     24890
     24883     24886     24889     24891     24883     24886     24889     24892
     24884     24883     24886     24887     24884     24883     24886     24888
     24884     24883     24886     24889     24885     24883     24886     24887
     24885     24883     24886     24888     24885     24883     24886     24889
     24886     24889     24892     24893     24886     24889     24892     24894
     24886     24889     24892     24895     24887     24886     24889     24890
     24887     24886     24889     24891     24887     24886     24889     24892
     24888     24886     24889     24890     24888     24886     24889     24891
     24888     24886     24889     24892     24889     24892     24895     24896
     24889     24892     24895     24897     24889     24892     24895     24898
     24890     24889     24892     24893     24890     24889     24892     24894
     24890     24889     24892     24895     24891     24889     24892     24893
     24891     24889     24892     24894     24891     24889     24892     24895
     24892     24895     24898     24899     24892     24895     24898     24900
     24892     24895     24898     24901     24893     24892     24895     24896
     24893     24892     24895     24897     24893     24892     24895     24898
     24894     24892     24895     24896     24894     24892     24895     24897
     24894     24892     24895     24898     24895     24898     24901     24902
     24895     24898     24901     24903     24895     24898     24901     24904
     24896     24895     24898     24899     24896     24895     24898     24900
     24896     24895     24898     24901     24897     24895     24898     24899
     24897     24895     24898     24900     24897     24895     24898     24901
     24898     24901     24904     24905     24898     24901     24904     24906
     24898     24901     24904     24907     24899     24898     24901     24902
     24899     24898     24901     24903     24899     24898     24901     24904
     24900     24898     24901     24902     24900     24898     24901     24903
     24900     24898     24901     24904     24901     24904     24907     24908
     24901     24904     24907     24909     24901     24904     24907     24910
     24902     24901     24904     24905     24902     24901     24904     24906
     24902     24901     24904     24907     24903     24901     24904     24905
     24903     24901     24904     24906     24903     24901     24904     24907
     24904     24907     24910     24911     24904     24907     24910     24912
     24904     24907     24910     24913     24905     24904     24907     24908
     24905     24904     24907     24909     24905     24904     24907     24910
     24906     24904     24907     24908     24906     24904     24907     24909
     24906     24904     24907     24910     24907     24910     24913     24914
     24907     24910     24913     24915     24907     24910     24913     24916
     24908     24907     24910     24911     24908     24907     24910     24912
     24908     24907     24910     24913     24909     24907     24910     24911
     24909     24907     24910     24912     24909     24907     24910     24913
     24911     24910     24913     24914     24911     24910     24913     24915
     24911     24910     24913     24916     24912     24910     24913     24914
     24912     24910     24913     24915     24912     24910     24913     24916

       408 !NIMPHI: impropers
        22        21        24        23        31        30        33        32
       144       143       146       145       153       152       155       154
       266       265       268       267       275       274       277       276
       389       388       391       390       398       397       400       399
       513       512       515       514       522       521       524       523
       632       631       634       633       641       640       643       642
       754       753       756       755       763       762       765       764
       876       875       878       877       885       884       887       886
       998       997      1000       999      1007      1006      1009      1008
      1123      1122      1125      1124      1132      1131      1134      1133
      1245      1244      1247      1246      1254      1253      1256      1255
      1370      1369      1372      1371      1379      1378      1381      1380
      1494      1493      1496      1495      1503      1502      1505      1504
      1616      1615      1618      1617      1625      1624      1627      1626
      1738      1737      1740      1739      1747      1746      1749      1748
      1860      1859      1862      1861      1869      1868      1871      1870
      1982      1981      1984      1983      1991      1990      1993      1992
      2106      2105      2108      2107      2115      2114      2117      2116
      2225      2224      2227      2226      2234      2233      2236      2235
      2347      2346      2349      2348      2356      2355      2358      2357
      2472      2471      2474      2473      2481      2480      2483      2482
      2594      2593      2596      2595      2603      2602      2605      2604
      2713      2712      2715      2714      2722      2721      2724      2723
      2834      2833      2836      2835      2843      2842      2845      2844
      2953      2952      2955      2954      2962      2961      2964      2963
      3077      3076      3079      3078      3086      3085      3088      3087
      3201      3200      3203      3202      3210      3209      3212      3211
      3325      3324      3327      3326      3334      3333      3336      3335
      3444      3443      3446      3445      3453      3452      3455      3454
      3566      3565      3568      3567      3575      3574      3577      3576
      3691      3690      3693      3692      3700      3699      3702      3701
      3818      3817      3820      3819      3827      3826      3829      3828
      3937      3936      3939      3938      3946      3945      3948      3947
      4061      4060      4063      4062      4070      4069      4072      4071
      4180      4179      4182      4181      4189      4188      4191      4190
      4302      4301      4304      4303      4311      4310      4313      4312
      4425      4424      4427      4426      4434      4433      4436      4435
      4547      4546      4549      4548      4556      4555      4558      4557
      4670      4669      4672      4671      4679      4678      4681      4680
      4792      4791      4794      4793      4801      4800      4803      4802
      4914      4913      4916      4915      4923      4922      4925      4924
      5053      5052      5055      5054      5044      5043      5046      5045
      5070      5069      5072      5071      5061      5060      5063      5062
      5276      5275      5278      5277      5285      5284      5287      5286
      5398      5397      5400      5399      5407      5406      5409      5408
      5520      5519      5522      5521      5529      5528      5531      5530
      5642      5641      5644      5643      5651      5650      5653      5652
      5767      5766      5769      5768      5776      5775      5778      5777
      5886      5885      5888      5887      5895      5894      5897      5896
      6008      6007      6010      6009      6017      6016      6019      6018
      6130      6129      6132      6131      6139      6138      6141      6140
      6255      6254      6257      6256      6264      6263      6266      6265
      6374      6373      6376      6375      6383      6382      6385      6384
      6496      6495      6498      6497      6505      6504      6507      6506
      6620      6619      6622      6621      6629      6628      6631      6630
      6744      6743      6746      6745      6753      6752      6755      6754
      6863      6862      6865      6864      6872      6871      6874      6873
      6985      6984      6987      6986      6994      6993      6996      6995
      7104      7103      7106      7105      7113      7112      7115      7114
      7223      7222      7225      7224      7232      7231      7234      7233
      7342      7341      7344      7343      7351      7350      7353      7352
      7467      7466      7469      7468      7476      7475      7478      7477
      7589      7588      7591      7590      7598      7597      7600      7599
      7714      7713      7716      7715      7723      7722      7725      7724
      7838      7837      7840      7839      7847      7846      7849      7848
      7960      7959      7962      7961      7969      7968      7971      7970
      8079      8078      8081      8080      8088      8087      8090      8089
      8202      8201      8204      8203      8211      8210      8213      8212
      8324      8323      8326      8325      8333      8332      8335      8334
      8449      8448      8451      8450      8458      8457      8460      8459
      8573      8572      8575      8574      8582      8581      8584      8583
      8695      8694      8697      8696      8704      8703      8706      8705
      8818      8817      8820      8819      8827      8826      8829      8828
      8939      8938      8941      8940      8948      8947      8950      8949
      9061      9060      9063      9062      9070      9069      9072      9071
      9186      9185      9188      9187      9195      9194      9197      9196
      9310      9309      9312      9311      9319      9318      9321      9320
      9429      9428      9431      9430      9438      9437      9440      9439
      9552      9551      9554      9553      9561      9560      9563      9562
      9674      9673      9676      9675      9683      9682      9685      9684
      9796      9795      9798      9797      9805      9804      9807      9806
      9921      9920      9923      9922      9930      9929      9932      9931
     10046     10045     10048     10047     10055     10054     10057     10056
     10168     10167     10170     10169     10177     10176     10179     10178
     10290     10289     10292     10291     10299     10298     10301     10300
     10413     10412     10415     10414     10422     10421     10424     10423
     10535     10534     10537     10536     10544     10543     10546     10545
     10656     10655     10658     10657     10665     10664     10667     10666
     10792     10791     10794     10793     10783     10782     10785     10784
     10809     10808     10811     10810     10800     10799     10802     10801
     11015     11014     11017     11016     11024     11023     11026     11025
     11134     11133     11136     11135     11143     11142     11145     11144
     11256     11255     11258     11257     11265     11264     11267     11266
     11377     11376     11379     11378     11386     11385     11388     11387
     11499     11498     11501     11500     11508     11507     11510     11509
     11621     11620     11623     11622     11630     11629     11632     11631
     11743     11742     11745     11744     11752     11751     11754     11753
     11865     11864     11867     11866     11874     11873     11876     11875
     11990     11989     11992     11991     11999     11998     12001     12000
     12114     12113     12116     12115     12123     12122     12125     12124
     12236     12235     12238     12237     12245     12244     12247     12246
     12358     12357     12360     12359     12367     12366     12369     12368
     12480     12479     12482     12481     12489     12488     12491     12490
     12602     12601     12604     12603     12611     12610     12613     12612
     12721     12720     12723     12722     12730     12729     12732     12731
     12846     12845     12848     12847     12855     12854     12857     12856
     12971     12970     12973     12972     12980     12979     12982     12981
     13092     13091     13094     13093     13101     13100     13103     13102
     13211     13210     13213     13212     13220     13219     13222     13221
     13336     13335     13338     13337     13345     13344     13347     13346
     13458     13457     13460     13459     13467     13466     13469     13468
     13583     13582     13585     13584     13592     13591     13594     13593
     13705     13704     13707     13706     13714     13713     13716     13715
     13829     13828     13831     13830     13838     13837     13840     13839
     13948     13947     13950     13949     13957     13956     13959     13958
     14070     14069     14072     14071     14079     14078     14081     14080
     14192     14191     14194     14193     14201     14200     14203     14202
     14331     14330     14333     14332     14322     14321     14324     14323
     14348     14347     14350     14349     14339     14338     14341     14340
     14554     14553     14556     14555     14563     14562     14565     14564
     14673     14672     14675     14674     14682     14681     14684     14683
     14792     14791     14794     14793     14801     14800     14803     14802
     14916     14915     14918     14917     14925     14924     14927     14926
     15038     15037     15040     15039     15047     15046     15049     15048
     15160     15159     15162     15161     15169     15168     15171     15170
     15283     15282     15285     15284     15292     15291     15294     15293
     15408     15407     15410     15409     15417     15416     15419     15418
     15530     15529     15532     15531     15539     15538     15541     15540
     15652     15651     15654     15653     15661     15660     15663     15662
     15774     15773     15776     15775     15783     15782     15785     15784
     15896     15895     15898     15897     15905     15904     15907     15906
     16023     16022     16025     16024     16032     16031     16034     16033
     16159     16158     16161     16160     16150     16149     16152     16151
     16176     16175     16178     16177     16167     16166     16169     16168
     16382     16381     16384     16383     16391     16390     16393     16392
     16504     16503     16506     16505     16513     16512     16515     16514
     16623     16622     16625     16624     16632     16631     16634     16633
     16747     16746     16749     16748     16756     16755     16758     16757
     16869     16868     16871     16870     16878     16877     16880     16879
     16991     16990     16993     16992     17000     16999     17002     17001
     17116     17115     17118     17117     17125     17124     17127     17126
     17235     17234     17237     17236     17244     17243     17246     17245
     17359     17358     17361     17360     17368     17367     17370     17369
     17480     17479     17482     17481     17489     17488     17491     17490
     17602     17601     17604     17603     17611     17610     17613     17612
     17721     17720     17723     17722     17730     17729     17732     17731
     17844     17843     17846     17845     17853     17852     17855     17854
     17966     17965     17968     17967     17975     17974     17977     17976
     18088     18087     18090     18089     18097     18096     18099     18098
     18207     18206     18209     18208     18216     18215     18218     18217
     18329     18328     18331     18330     18338     18337     18340     18339
     18454     18453     18456     18455     18463     18462     18465     18464
     18576     18575     18578     18577     18585     18584     18587     18586
     18698     18697     18700     18699     18707     18706     18709     18708
     18820     18819     18822     18821     18829     18828     18831     18830
     18942     18941     18944     18943     18951     18950     18953     18952
     19064     19063     19066     19065     19073     19072     19075     19074
     19186     19185     19188     19187     19195     19194     19197     19196
     19311     19310     19313     19312     19320     19319     19322     19321
     19433     19432     19435     19434     19442     19441     19444     19443
     19558     19557     19560     19559     19567     19566     19569     19568
     19680     19679     19682     19681     19689     19688     19691     19690
     19799     19798     19801     19800     19808     19807     19810     19809
     19921     19920     19923     19922     19930     19929     19932     19931
     20043     20042     20045     20044     20052     20051     20054     20053
     20165     20164     20167     20166     20174     20173     20176     20175
     20288     20287     20290     20289     20297     20296     20299     20298
     20410     20409     20412     20411     20419     20418     20421     20420
     20534     20533     20536     20535     20543     20542     20545     20544
     20656     20655     20658     20657     20665     20664     20667     20666
     20775     20774     20777     20776     20784     20783     20786     20785
     20897     20896     20899     20898     20906     20905     20908     20907
     21019     21018     21021     21020     21028     21027     21030     21029
     21144     21143     21146     21145     21153     21152     21155     21154
     21263     21262     21265     21264     21272     21271     21274     21273
     21385     21384     21387     21386     21394     21393     21396     21395
     21507     21506     21509     21508     21516     21515     21518     21517
     21629     21628     21631     21630     21638     21637     21640     21639
     21751     21750     21753     21752     21760     21759     21762     21761
     21873     21872     21875     21874     21882     21881     21884     21883
     21998     21997     22000     21999     22007     22006     22009     22008
     22121     22120     22123     22122     22130     22129     22132     22131
     22240     22239     22242     22241     22249     22248     22251     22250
     22359     22358     22361     22360     22368     22367     22370     22369
     22483     22482     22485     22484     22492     22491     22494     22493
     22607     22606     22609     22608     22616     22615     22618     22617
     22729     22728     22731     22730     22738     22737     22740     22739
     22852     22851     22854     22853     22861     22860     22863     22862
     22979     22978     22981     22980     22988     22987     22990     22989
     23101     23100     23103     23102     23110     23109     23112     23111
     23225     23224     23227     23226     23234     23233     23236     23235
     23349     23348     23351     23350     23358     23357     23360     23359
     23468     23467     23470     23469     23477     23476     23479     23478
     23593     23592     23595     23594     23602     23601     23604     23603
     23717     23716     23719     23718     23726     23725     23728     23727
     23841     23840     23843     23842     23850     23849     23852     23851
     23965     23964     23967     23966     23974     23973     23976     23975
     24084     24083     24086     24085     24093     24092     24095     24094
     24209     24208     24211     24210     24218     24217     24220     24219
     24331     24330     24333     24332     24340     24339     24342     24341
     24456     24455     24458     24457     24465     24464     24467     24466
     24578     24577     24580     24579     24587     24586     24589     24588
     24697     24696     24699     24698     24706     24705     24708     24707
     24819     24818     24821     24820     24828     24827     24830     24829

         0 !NDON: donors


         0 !NACC: acceptors


         0 !NNB

         0         0         0         0         0         0         0         0
         0         0         0         0         0         0         0         0
         0         0         0         0         0         0         0         0
         0         0         0         0         0         0         0         0
         0         0         0         0         0         0         0         0
         0         0         0         0         0         0         0         0
         0         0         0         0         0         0         0         0
         0         0         0         0         0         0         0         0
         0         0         0         0         0         0         0         0
         0         0         0         0         0         0         0         0
         0         0         0         0         0         0         0         0
         0         0         0         0         0         0         0         0
         0         0         0         0         0         0         0         0
         0         0         0         0         0         0         0         0
         0         0         0         0         0         0         0         0
         0         0         0         0         0         0         0         0
         0         0         0         0         0         0         0         0
         0         0         0         0         0         0         0         0
         0         0         0         0         0         0         0         0
         0         0         0         0         0         0         0         0
         0         0         0         0         0         0         0         0
         0         0         0         0         0         0         0         0
         0         0         0         0         0         0         0         0
         0         0         0         0         0         0         0         0
         0         0         0         0         0         0         0         0
         0         0         0         0         0         0         0         0
         0         0         0         0         0         0         0         0
         0         0         0         0         0         0         0         0
         0         0         0         0         0         0         0         0
         0         0         0         0         0         0         0         0
         0         0         0         0         0         0         0         0
         0         0         0         0         0         0         0         0
         0         0         0         0         0         0         0         0
         0         0         0         0         0         0         0         0
         0         0         0         0         0         0         0         0
         0         0         0         0         0         0         0         0
         0         0         0         0         0         0         0         0
         0         0         0         0         0         0         0         0
         0         0         0         0         0         0         0         0
         0         0         0         0         0         0         0         0
         0         0         0         0         0         0         0         0
         0         0         0         0         0         0         0         0
         0         0         0         0         0         0         0         0
         0         0         0         0         0         0         0         0
         0         0         0         0         0         0         0         0
         0         0         0         0         0         0         0         0
         0         0         0         0         0         0         0         0
         0         0         0         0         0         0         0         0
         0         0         0         0         0         0         0         0
         0         0         0         0         0         0         0         0
         0         0         0         0         0         0         0         0
         0         0         0         0         0         0         0         0
         0         0         0         0         0         0         0         0
         0         0         0         0         0         0         0         0
         0         0         0         0         0         0         0         0
         0         0         0         0         0         0         0         0
         0         0         0         0         0         0         0         0
         0         0         0         0         0         0         0         0
         0         0         0         0         0         0         0         0
         0         0         0         0         0         0         0         0
         0         0         0         0         0         0         0         0
         0         0         0         0         0         0         0         0
         0         0         0         0         0         0         0         0
         0         0         0         0         0         0         0         0
         0         0         0         0         0         0         0         0
         0         0         0         0         0         0         0         0
         0         0         0         0         0         0         0         0
         0         0         0         0         0         0         0         0
         0         0         0         0         0         0         0         0
         0         0         0         0         0         0         0         0
         0         0         0         0         0         0         0         0
         0         0         0         0         0         0         0         0
         0         0         0         0         0         0         0         0
         0         0         0         0         0         0         0         0
         0         0         0         0         0         0         0         0
         0         0         0         0         0         0         0         0
         0         0         0         0         0         0         0         0
         0         0         0         0         0         0         0         0
         0         0         0         0         0         0         0         0
         0         0         0         0         0         0         0         0
         0         0         0         0         0         0         0         0
         0         0         0         0         0         0         0         0
         0         0         0         0         0         0         0         0
         0         0         0         0         0         0         0         0
         0         0         0         0         0         0         0         0
         0         0         0         0         0         0         0         0
         0         0         0         0         0         0         0         0
         0         0         0         0         0         0         0         0
         0         0         0         0         0         0         0         0
         0         0         0         0         0         0         0         0
         0         0         0         0         0         0         0         0
         0         0         0         0         0         0         0         0
         0         0         0         0         0         0         0         0
         0         0         0         0         0         0         0         0
         0         0         0         0         0         0         0         0
         0         0         0         0         0         0         0         0
         0         0         0         0         0         0         0         0
         0         0         0         0         0         0         0         0
         0         0         0         0         0         0         0         0
         0         0         0         0         0         0         0         0
         0         0         0         0         0         0         0         0
         0         0         0         0         0         0         0         0
         0         0         0         0         0         0         0         0
         0         0         0         0         0         0         0         0
         0         0         0         0         0         0         0         0
         0         0         0         0         0         0         0         0
         0         0         0         0         0         0         0         0
         0         0         0         0         0         0         0         0
         0         0         0         0         0         0         0         0
         0         0         0         0         0         0         0         0
         0         0         0         0         0         0         0         0
         0         0         0         0         0         0         0         0
         0         0         0         0         0         0         0         0
         0         0         0         0         0         0         0         0
         0         0         0         0         0         0         0         0
         0         0         0         0         0         0         0         0
         0         0         0         0         0         0         0         0
         0         0         0         0         0         0         0         0
         0         0         0         0         0         0         0         0
         0         0         0         0         0         0         0         0
         0         0         0         0         0         0         0         0
         0         0         0         0         0         0         0         0
         0         0         0         0         0         0         0         0
         0         0         0         0         0         0         0         0
         0         0         0         0         0         0         0         0
         0         0         0         0         0         0         0         0
         0         0         0         0         0         0         0         0
         0         0         0         0         0         0         0         0
         0         0         0         0         0         0         0         0
         0         0         0         0         0         0         0         0
         0         0         0         0         0         0         0         0
         0         0         0         0         0         0         0         0
         0         0         0         0         0         0         0         0
         0         0         0         0         0         0         0         0
         0         0         0         0         0         0         0         0
         0         0         0         0         0         0         0         0
         0         0         0         0         0         0         0         0
         0         0         0         0         0         0         0         0
         0         0         0         0         0         0         0         0
         0         0         0         0         0         0         0         0
         0         0         0         0         0         0         0         0
         0         0         0         0         0         0         0         0
         0         0         0         0         0         0         0         0
         0         0         0         0         0         0         0         0
         0         0         0         0         0         0         0         0
         0         0         0         0         0         0         0         0
         0         0         0         0         0         0         0         0
         0         0         0         0         0         0         0         0
         0         0         0         0         0         0         0         0
         0         0         0         0         0         0         0         0
         0         0         0         0         0         0         0         0
         0         0         0         0         0         0         0         0
         0         0         0         0         0         0         0         0
         0         0         0         0         0         0         0         0
         0         0         0         0         0         0         0         0
         0         0         0         0         0         0         0         0
         0         0         0         0         0         0         0         0
         0         0         0         0         0         0         0         0
         0         0         0         0         0         0         0         0
         0         0         0         0         0         0         0         0
         0         0         0         0         0         0         0         0
         0         0         0         0         0         0         0         0
         0         0         0         0         0         0         0         0
         0         0         0         0         0         0         0         0
         0         0         0         0         0         0         0         0
         0         0         0         0         0         0         0         0
         0         0         0         0         0         0         0         0
         0         0         0         0         0         0         0         0
         0         0         0         0         0         0         0         0
         0         0         0         0         0         0         0         0
         0         0         0         0         0         0         0         0
         0         0         0         0         0         0         0         0
         0         0         0         0         0         0         0         0
         0         0         0         0         0         0         0         0
         0         0         0         0         0         0         0         0
         0         0         0         0         0         0         0         0
         0         0         0         0         0         0         0         0
         0         0         0         0         0         0         0         0
         0         0         0         0         0         0         0         0
         0         0         0         0         0         0         0         0
         0         0         0         0         0         0         0         0
         0         0         0         0         0         0         0         0
         0         0         0         0         0         0         0         0
         0         0         0         0         0         0         0         0
         0         0         0         0         0         0         0         0
         0         0         0         0         0         0         0         0
         0         0         0         0         0         0         0         0
         0         0         0         0         0         0         0         0
         0         0         0         0         0         0         0         0
         0         0         0         0         0         0         0         0
         0         0         0         0         0         0         0         0
         0         0         0         0         0         0         0         0
         0         0         0         0         0         0         0         0
         0         0         0         0         0         0         0         0
         0         0         0         0         0         0         0         0
         0         0         0         0         0         0         0         0
         0         0         0         0         0         0         0         0
         0         0         0         0         0         0         0         0
         0         0         0         0         0         0         0         0
         0         0         0         0         0         0         0         0
         0         0         0         0         0         0         0         0
         0         0         0         0         0         0         0         0
         0         0         0         0         0         0         0         0
         0         0         0         0         0         0         0         0
         0         0         0         0         0         0         0         0
         0         0         0         0         0         0         0         0
         0         0         0         0         0         0         0         0
         0         0         0         0         0         0         0         0
         0         0         0         0         0         0         0         0
         0         0         0         0         0         0         0         0
         0         0         0         0         0         0         0         0
         0         0         0         0         0         0         0         0
         0         0         0         0         0         0         0         0
         0         0         0         0         0         0         0         0
         0         0         0         0         0         0         0         0
         0         0         0         0         0         0         0         0
         0         0         0         0         0         0         0         0
         0         0         0         0         0         0         0         0
         0         0         0         0         0         0         0         0
         0         0         0         0         0         0         0         0
         0         0         0         0         0         0         0         0
         0         0         0         0         0         0         0         0
         0         0         0         0         0         0         0         0
         0         0         0         0         0         0         0         0
         0         0         0         0         0         0         0         0
         0         0         0         0         0         0         0         0
         0         0         0         0         0         0         0         0
         0         0         0         0         0         0         0         0
         0         0         0         0         0         0         0         0
         0         0         0         0         0         0         0         0
         0         0         0         0         0         0         0         0
         0         0         0         0         0         0         0         0
         0         0         0         0         0         0         0         0
         0         0         0         0         0         0         0         0
         0         0         0         0         0         0         0         0
         0         0         0         0         0         0         0         0
         0         0         0         0         0         0         0         0
         0         0         0         0         0         0         0         0
         0         0         0         0         0         0         0         0
         0         0         0         0         0         0         0         0
         0         0         0         0         0         0         0         0
         0         0         0         0         0         0         0         0
         0         0         0         0         0         0         0         0
         0         0         0         0         0         0         0         0
         0         0         0         0         0         0         0         0
         0         0         0         0         0         0         0         0
         0         0         0         0         0         0         0         0
         0         0         0         0         0         0         0         0
         0         0         0         0         0         0         0         0
         0         0         0         0         0         0         0         0
         0         0         0         0         0         0         0         0
         0         0         0         0         0         0         0         0
         0         0         0         0         0         0         0         0
         0         0         0         0         0         0         0         0
         0         0         0         0         0         0         0         0
         0         0         0         0         0         0         0         0
         0         0         0         0         0         0         0         0
         0         0         0         0         0         0         0         0
         0         0         0         0         0         0         0         0
         0         0         0         0         0         0         0         0
         0         0         0         0         0         0         0         0
         0         0         0         0         0         0         0         0
         0         0         0         0         0         0         0         0
         0         0         0         0         0         0         0         0
         0         0         0         0         0         0         0         0
         0         0         0         0         0         0         0         0
         0         0         0         0         0         0         0         0
         0         0         0         0         0         0         0         0
         0         0         0         0         0         0         0         0
         0         0         0         0         0         0         0         0
         0         0         0         0         0         0         0         0
         0         0         0         0         0         0         0         0
         0         0         0         0         0         0         0         0
         0         0         0         0         0         0         0         0
         0         0         0         0         0         0         0         0
         0         0         0         0         0         0         0         0
         0         0         0         0         0         0         0         0
         0         0         0         0         0         0         0         0
         0         0         0         0         0         0         0         0
         0         0         0         0         0         0         0         0
         0         0         0         0         0         0         0         0
         0         0         0         0         0         0         0         0
         0         0         0         0         0         0         0         0
         0         0         0         0         0         0         0         0
         0         0         0         0         0         0         0         0
         0         0         0         0         0         0         0         0
         0         0         0         0         0         0         0         0
         0         0         0         0         0         0         0         0
         0         0         0         0         0         0         0         0
         0         0         0         0         0         0         0         0
         0         0         0         0         0         0         0         0
         0         0         0         0         0         0         0         0
         0         0         0         0         0         0         0         0
         0         0         0         0         0         0         0         0
         0         0         0         0         0         0         0         0
         0         0         0         0         0         0         0         0
         0         0         0         0         0         0         0         0
         0         0         0         0         0         0         0         0
         0         0         0         0         0         0         0         0
         0         0         0         0         0         0         0         0
         0         0         0         0         0         0         0         0
         0         0         0         0         0         0         0         0
         0         0         0         0         0         0         0         0
         0         0         0         0         0         0         0         0
         0         0         0         0         0         0         0         0
         0         0         0         0         0         0         0         0
         0         0         0         0         0         0         0         0
         0         0         0         0         0         0         0         0
         0         0         0         0         0         0         0         0
         0         0         0         0         0         0         0         0
         0         0         0         0         0         0         0         0
         0         0         0         0         0         0         0         0
         0         0         0         0         0         0         0         0
         0         0         0         0         0         0         0         0
         0         0         0         0         0         0         0         0
         0         0         0         0         0         0         0         0
         0         0         0         0         0         0         0         0
         0         0         0         0         0         0         0         0
         0         0         0         0         0         0         0         0
         0         0         0         0         0         0         0         0
         0         0         0         0         0         0         0         0
         0         0         0         0         0         0         0         0
         0         0         0         0         0         0         0         0
         0         0         0         0         0         0         0         0
         0         0         0         0         0         0         0         0
         0         0         0         0         0         0         0         0
         0         0         0         0         0         0         0         0
         0         0         0         0         0         0         0         0
         0         0         0         0         0         0         0         0
         0         0         0         0         0         0         0         0
         0         0         0         0         0         0         0         0
         0         0         0         0         0         0         0         0
         0         0         0         0         0         0         0         0
         0         0         0         0         0         0         0         0
         0         0         0         0         0         0         0         0
         0         0         0         0         0         0         0         0
         0         0         0         0         0         0         0         0
         0         0         0         0         0         0         0         0
         0         0         0         0         0         0         0         0
         0         0         0         0         0         0         0         0
         0         0         0         0         0         0         0         0
         0         0         0         0         0         0         0         0
         0         0         0         0         0         0         0         0
         0         0         0         0         0         0         0         0
         0         0         0         0         0         0         0         0
         0         0         0         0         0         0         0         0
         0         0         0         0         0         0         0         0
         0         0         0         0         0         0         0         0
         0         0         0         0         0         0         0         0
         0         0         0         0         0         0         0         0
         0         0         0         0         0         0         0         0
         0         0         0         0         0         0         0         0
         0         0         0         0         0         0         0         0
         0         0         0         0         0         0         0         0
         0         0         0         0         0         0         0         0
         0         0         0         0         0         0         0         0
         0         0         0         0         0         0         0         0
         0         0         0         0         0         0         0         0
         0         0         0         0         0         0         0         0
         0         0         0         0         0         0         0         0
         0         0         0         0         0         0         0         0
         0         0         0         0         0         0         0         0
         0         0         0         0         0         0         0         0
         0         0         0         0         0         0         0         0
         0         0         0         0         0         0         0         0
         0         0         0         0         0         0         0         0
         0         0         0         0         0         0         0         0
         0         0         0         0         0         0         0         0
         0         0         0         0         0         0         0         0
         0         0         0         0         0         0         0         0
         0         0         0         0         0         0         0         0
         0         0         0         0         0         0         0         0
         0         0         0         0         0         0         0         0
         0         0         0         0         0         0         0         0
         0         0         0         0         0         0         0         0
         0         0         0         0         0         0         0         0
         0         0         0         0         0         0         0         0
         0         0         0         0         0         0         0         0
         0         0         0         0         0         0         0         0
         0         0         0         0         0         0         0         0
         0         0         0         0         0         0         0         0
         0         0         0         0         0         0         0         0
         0         0         0         0         0         0         0         0
         0         0         0         0         0         0         0         0
         0         0         0         0         0         0         0         0
         0         0         0         0         0         0         0         0
         0         0         0         0         0         0         0         0
         0         0         0         0         0         0         0         0
         0         0         0         0         0         0         0         0
         0         0         0         0         0         0         0         0
         0         0         0         0         0         0         0         0
         0         0         0         0         0         0         0         0
         0         0         0         0         0         0         0         0
         0         0         0         0         0         0         0         0
         0         0         0         0         0         0         0         0
         0         0         0         0         0         0         0         0
         0         0         0         0         0         0         0         0
         0         0         0         0         0         0         0         0
         0         0         0         0         0         0         0         0
         0         0         0         0         0         0         0         0
         0         0         0         0         0         0         0         0
         0         0         0         0         0         0         0         0
         0         0         0         0         0         0         0         0
         0         0         0         0         0         0         0         0
         0         0         0         0         0         0         0         0
         0         0         0         0         0         0         0         0
         0         0         0         0         0         0         0         0
         0         0         0         0         0         0         0         0
         0         0         0         0         0         0         0         0
         0         0         0         0         0         0         0         0
         0         0         0         0         0         0         0         0
         0         0         0         0         0         0         0         0
         0         0         0         0         0         0         0         0
         0         0         0         0         0         0         0         0
         0         0         0         0         0         0         0         0
         0         0         0         0         0         0         0         0
         0         0         0         0         0         0         0         0
         0         0         0         0         0         0         0         0
         0         0         0         0         0         0         0         0
         0         0         0         0         0         0         0         0
         0         0         0         0         0         0         0         0
         0         0         0         0         0         0         0         0
         0         0         0         0         0         0         0         0
         0         0         0         0         0         0         0         0
         0         0         0         0         0         0         0         0
         0         0         0         0         0         0         0         0
         0         0         0         0         0         0         0         0
         0         0         0         0         0         0         0         0
         0         0         0         0         0         0         0         0
         0         0         0         0         0         0         0         0
         0         0         0         0         0         0         0         0
         0         0         0         0         0         0         0         0
         0         0         0         0         0         0         0         0
         0         0         0         0         0         0         0         0
         0         0         0         0         0         0         0         0
         0         0         0         0         0         0         0         0
         0         0         0         0         0         0         0         0
         0         0         0         0         0         0         0         0
         0         0         0         0         0         0         0         0
         0         0         0         0         0         0         0         0
         0         0         0         0         0         0         0         0
         0         0         0         0         0         0         0         0
         0         0         0         0         0         0         0         0
         0         0         0         0         0         0         0         0
         0         0         0         0         0         0         0         0
         0         0         0         0         0         0         0         0
         0         0         0         0         0         0         0         0
         0         0         0         0         0         0         0         0
         0         0         0         0         0         0         0         0
         0         0         0         0         0         0         0         0
         0         0         0         0         0         0         0         0
         0         0         0         0         0         0         0         0
         0         0         0         0         0         0         0         0
         0         0         0         0         0         0         0         0
         0         0         0         0         0         0         0         0
         0         0         0         0         0         0         0         0
         0         0         0         0         0         0         0         0
         0         0         0         0         0         0         0         0
         0         0         0         0         0         0         0         0
         0         0         0         0         0         0         0         0
         0         0         0         0         0         0         0         0
         0         0         0         0         0         0         0         0
         0         0         0         0         0         0         0         0
         0         0         0         0         0         0         0         0
         0         0         0         0         0         0         0         0
         0         0         0         0         0         0         0         0
         0         0         0         0         0         0         0         0
         0         0         0         0         0         0         0         0
         0         0         0         0         0         0         0         0
         0         0         0         0         0         0         0         0
         0         0         0         0         0         0         0         0
         0         0         0         0         0         0         0         0
         0         0         0         0         0         0         0         0
         0         0         0         0         0         0         0         0
         0         0         0         0         0         0         0         0
         0         0         0         0         0         0         0         0
         0         0         0         0         0         0         0         0
         0         0         0         0         0         0         0         0
         0         0         0         0         0         0         0         0
         0         0         0         0         0         0         0         0
         0         0         0         0         0         0         0         0
         0         0         0         0         0         0         0         0
         0         0         0         0         0         0         0         0
         0         0         0         0         0         0         0         0
         0         0         0         0         0         0         0         0
         0         0         0         0         0         0         0         0
         0         0         0         0         0         0         0         0
         0         0         0         0         0         0         0         0
         0         0         0         0         0         0         0         0
         0         0         0         0         0         0         0         0
         0         0         0         0         0         0         0         0
         0         0         0         0         0         0         0         0
         0         0         0         0         0         0         0         0
         0         0         0         0         0         0         0         0
         0         0         0         0         0         0         0         0
         0         0         0         0         0         0         0         0
         0         0         0         0         0         0         0         0
         0         0         0         0         0         0         0         0
         0         0         0         0         0         0         0         0
         0         0         0         0         0         0         0         0
         0         0         0         0         0         0         0         0
         0         0         0         0         0         0         0         0
         0         0         0         0         0         0         0         0
         0         0         0         0         0         0         0         0
         0         0         0         0         0         0         0         0
         0         0         0         0         0         0         0         0
         0         0         0         0         0         0         0         0
         0         0         0         0         0         0         0         0
         0         0         0         0         0         0         0         0
         0         0         0         0         0         0         0         0
         0         0         0         0         0         0         0         0
         0         0         0         0         0         0         0         0
         0         0         0         0         0         0         0         0
         0         0         0         0         0         0         0         0
         0         0         0         0         0         0         0         0
         0         0         0         0         0         0         0         0
         0         0         0         0         0         0         0         0
         0         0         0         0         0         0         0         0
         0         0         0         0         0         0         0         0
         0         0         0         0         0         0         0         0
         0         0         0         0         0         0         0         0
         0         0         0         0         0         0         0         0
         0         0         0         0         0         0         0         0
         0         0         0         0         0         0         0         0
         0         0         0         0         0         0         0         0
         0         0         0         0         0         0         0         0
         0         0         0         0         0         0         0         0
         0         0         0         0         0         0         0         0
         0         0         0         0         0         0         0         0
         0         0         0         0         0         0         0         0
         0         0         0         0         0         0         0         0
         0         0         0         0         0         0         0         0
         0         0         0         0         0         0         0         0
         0         0         0         0         0         0         0         0
         0         0         0         0         0         0         0         0
         0         0         0         0         0         0         0         0
         0         0         0         0         0         0         0         0
         0         0         0         0         0         0         0         0
         0         0         0         0         0         0         0         0
         0         0         0         0         0         0         0         0
         0         0         0         0         0         0         0         0
         0         0         0         0         0         0         0         0
         0         0         0         0         0         0         0         0
         0         0         0         0         0         0         0         0
         0         0         0         0         0         0         0         0
         0         0         0         0         0         0         0         0
         0         0         0         0         0         0         0         0
         0         0         0         0         0         0         0         0
         0         0         0         0         0         0         0         0
         0         0         0         0         0         0         0         0
         0         0         0         0         0         0         0         0
         0         0         0         0         0         0         0         0
         0         0         0         0         0         0         0         0
         0         0         0         0         0         0         0         0
         0         0         0         0         0         0         0         0
         0         0         0         0         0         0         0         0
         0         0         0         0         0         0         0         0
         0         0         0         0         0         0         0         0
         0         0         0         0         0         0         0         0
         0         0         0         0         0         0         0         0
         0         0         0         0         0         0         0         0
         0         0         0         0         0         0         0         0
         0         0         0         0         0         0         0         0
         0         0         0         0         0         0         0         0
         0         0         0         0         0         0         0         0
         0         0         0         0         0         0         0         0
         0         0         0         0         0         0         0         0
         0         0         0         0         0         0         0         0
         0         0         0         0         0         0         0         0
         0         0         0         0         0         0         0         0
         0         0         0         0         0         0         0         0
         0         0         0         0         0         0         0         0
         0         0         0         0         0         0         0         0
         0         0         0         0         0         0         0         0
         0         0         0         0         0         0         0         0
         0         0         0         0         0         0         0         0
         0         0         0         0         0         0         0         0
         0         0         0         0         0         0         0         0
         0         0         0         0         0         0         0         0
         0         0         0         0         0         0         0         0
         0         0         0         0         0         0         0         0
         0         0         0         0         0         0         0         0
         0         0         0         0         0         0         0         0
         0         0         0         0         0         0         0         0
         0         0         0         0         0         0         0         0
         0         0         0         0         0         0         0         0
         0         0         0         0         0         0         0         0
         0         0         0         0         0         0         0         0
         0         0         0         0         0         0         0         0
         0         0         0         0         0         0         0         0
         0         0         0         0         0         0         0         0
         0         0         0         0         0         0         0         0
         0         0         0         0         0         0         0         0
         0         0         0         0         0         0         0         0
         0         0         0         0         0         0         0         0
         0         0         0         0         0         0         0         0
         0         0         0         0         0         0         0         0
         0         0         0         0         0         0         0         0
         0         0         0         0         0         0         0         0
         0         0         0         0         0         0         0         0
         0         0         0         0         0         0         0         0
         0         0         0         0         0         0         0         0
         0         0         0         0         0         0         0         0
         0         0         0         0         0         0         0         0
         0         0         0         0         0         0         0         0
         0         0         0         0         0         0         0         0
         0         0         0         0         0         0         0         0
         0         0         0         0         0         0         0         0
         0         0         0         0         0         0         0         0
         0         0         0         0         0         0         0         0
         0         0         0         0         0         0         0         0
         0         0         0         0         0         0         0         0
         0         0         0         0         0         0         0         0
         0         0         0         0         0         0         0         0
         0         0         0         0         0         0         0         0
         0         0         0         0         0         0         0         0
         0         0         0         0         0         0         0         0
         0         0         0         0         0         0         0         0
         0         0         0         0         0         0         0         0
         0         0         0         0         0         0         0         0
         0         0         0         0         0         0         0         0
         0         0         0         0         0         0         0         0
         0         0         0         0         0         0         0         0
         0         0         0         0         0         0         0         0
         0         0         0         0         0         0         0         0
         0         0         0         0         0         0         0         0
         0         0         0         0         0         0         0         0
         0         0         0         0         0         0         0         0
         0         0         0         0         0         0         0         0
         0         0         0         0         0         0         0         0
         0         0         0         0         0         0         0         0
         0         0         0         0         0         0         0         0
         0         0         0         0         0         0         0         0
         0         0         0         0         0         0         0         0
         0         0         0         0         0         0         0         0
         0         0         0         0         0         0         0         0
         0         0         0         0         0         0         0         0
         0         0         0         0         0         0         0         0
         0         0         0         0         0         0         0         0
         0         0         0         0         0         0         0         0
         0         0         0         0         0         0         0         0
         0         0         0         0         0         0         0         0
         0         0         0         0         0         0         0         0
         0         0         0         0         0         0         0         0
         0         0         0         0         0         0         0         0
         0         0         0         0         0         0         0         0
         0         0         0         0         0         0         0         0
         0         0         0         0         0         0         0         0
         0         0         0         0         0         0         0         0
         0         0         0         0         0         0         0         0
         0         0         0         0         0         0         0         0
         0         0         0         0         0         0         0         0
         0         0         0         0         0         0         0         0
         0         0         0         0         0         0         0         0
         0         0         0         0         0         0         0         0
         0         0         0         0         0         0         0         0
         0         0         0         0         0         0         0         0
         0         0         0         0         0         0         0         0
         0         0         0         0         0         0         0         0
         0         0         0         0         0         0         0         0
         0         0         0         0         0         0         0         0
         0         0         0         0         0         0         0         0
         0         0         0         0         0         0         0         0
         0         0         0         0         0         0         0         0
         0         0         0         0         0         0         0         0
         0         0         0         0         0         0         0         0
         0         0         0         0         0         0         0         0
         0         0         0         0         0         0         0         0
         0         0         0         0         0         0         0         0
         0         0         0         0         0         0         0         0
         0         0         0         0         0         0         0         0
         0         0         0         0         0         0         0         0
         0         0         0         0         0         0         0         0
         0         0         0         0         0         0         0         0
         0         0         0         0         0         0         0         0
         0         0         0         0         0         0         0         0
         0         0         0         0         0         0         0         0
         0         0         0         0         0         0         0         0
         0         0         0         0         0         0         0         0
         0         0         0         0         0         0         0         0
         0         0         0         0         0         0         0         0
         0         0         0         0         0         0         0         0
         0         0         0         0         0         0         0         0
         0         0         0         0         0         0         0         0
         0         0         0         0         0         0         0         0
         0         0         0         0         0         0         0         0
         0         0         0         0         0         0         0         0
         0         0         0         0         0         0         0         0
         0         0         0         0         0         0         0         0
         0         0         0         0         0         0         0         0
         0         0         0         0         0         0         0         0
         0         0         0         0         0         0         0         0
         0         0         0         0         0         0         0         0
         0         0         0         0         0         0         0         0
         0         0         0         0         0         0         0         0
         0         0         0         0         0         0         0         0
         0         0         0         0         0         0         0         0
         0         0         0         0         0         0         0         0
         0         0         0         0         0         0         0         0
         0         0         0         0         0         0         0         0
         0         0         0         0         0         0         0         0
         0         0         0         0         0         0         0         0
         0         0         0         0         0         0         0         0
         0         0         0         0         0         0         0         0
         0         0         0         0         0         0         0         0
         0         0         0         0         0         0         0         0
         0         0         0         0         0         0         0         0
         0         0         0         0         0         0         0         0
         0         0         0         0         0         0         0         0
         0         0         0         0         0         0         0         0
         0         0         0         0         0         0         0         0
         0         0         0         0         0         0         0         0
         0         0         0         0         0         0         0         0
         0         0         0         0         0         0         0         0
         0         0         0         0         0         0         0         0
         0         0         0         0         0         0         0         0
         0         0         0         0         0         0         0         0
         0         0         0         0         0         0         0         0
         0         0         0         0         0         0         0         0
         0         0         0         0         0         0         0         0
         0         0         0         0         0         0         0         0
         0         0         0         0         0         0         0         0
         0         0         0         0         0         0         0         0
         0         0         0         0         0         0         0         0
         0         0         0         0         0         0         0         0
         0         0         0         0         0         0         0         0
         0         0         0         0         0         0         0         0
         0         0         0         0         0         0         0         0
         0         0         0         0         0         0         0         0
         0         0         0         0         0         0         0         0
         0         0         0         0         0         0         0         0
         0         0         0         0         0         0         0         0
         0         0         0         0         0         0         0         0
         0         0         0         0         0         0         0         0
         0         0         0         0         0         0         0         0
         0         0         0         0         0         0         0         0
         0         0         0         0         0         0         0         0
         0         0         0         0         0         0         0         0
         0         0         0         0         0         0         0         0
         0         0         0         0         0         0         0         0
         0         0         0         0         0         0         0         0
         0         0         0         0         0         0         0         0
         0         0         0         0         0         0         0         0
         0         0         0         0         0         0         0         0
         0         0         0         0         0         0         0         0
         0         0         0         0         0         0         0         0
         0         0         0         0         0         0         0         0
         0         0         0         0         0         0         0         0
         0         0         0         0         0         0         0         0
         0         0         0         0         0         0         0         0
         0         0         0         0         0         0         0         0
         0         0         0         0         0         0         0         0
         0         0         0         0         0         0         0         0
         0         0         0         0         0         0         0         0
         0         0         0         0         0         0         0         0
         0         0         0         0         0         0         0         0
         0         0         0         0         0         0         0         0
         0         0         0         0         0         0         0         0
         0         0         0         0         0         0         0         0
         0         0         0         0         0         0         0         0
         0         0         0         0         0         0         0         0
         0         0         0         0         0         0         0         0
         0         0         0         0         0         0         0         0
         0         0         0         0         0         0         0         0
         0         0         0         0         0         0         0         0
         0         0         0         0         0         0         0         0
         0         0         0         0         0         0         0         0
         0         0         0         0         0         0         0         0
         0         0         0         0         0         0         0         0
         0         0         0         0         0         0         0         0
         0         0         0         0         0         0         0         0
         0         0         0         0         0         0         0         0
         0         0         0         0         0         0         0         0
         0         0         0         0         0         0         0         0
         0         0         0         0         0         0         0         0
         0         0         0         0         0         0         0         0
         0         0         0         0         0         0         0         0
         0         0         0         0         0         0         0         0
         0         0         0         0         0         0         0         0
         0         0         0         0         0         0         0         0
         0         0         0         0         0         0         0         0
         0         0         0         0         0         0         0         0
         0         0         0         0         0         0         0         0
         0         0         0         0         0         0         0         0
         0         0         0         0         0         0         0         0
         0         0         0         0         0         0         0         0
         0         0         0         0         0         0         0         0
         0         0         0         0         0         0         0         0
         0         0         0         0         0         0         0         0
         0         0         0         0         0         0         0         0
         0         0         0         0         0         0         0         0
         0         0         0         0         0         0         0         0
         0         0         0         0         0         0         0         0
         0         0         0         0         0         0         0         0
         0         0         0         0         0         0         0         0
         0         0         0         0         0         0         0         0
         0         0         0         0         0         0         0         0
         0         0         0         0         0         0         0         0
         0         0         0         0         0         0         0         0
         0         0         0         0         0         0         0         0
         0         0         0         0         0         0         0         0
         0         0         0         0         0         0         0         0
         0         0         0         0         0         0         0         0
         0         0         0         0         0         0         0         0
         0         0         0         0         0         0         0         0
         0         0         0         0         0         0         0         0
         0         0         0         0         0         0         0         0
         0         0         0         0         0         0         0         0
         0         0         0         0         0         0         0         0
         0         0         0         0         0         0         0         0
         0         0         0         0         0         0         0         0
         0         0         0         0         0         0         0         0
         0         0         0         0         0         0         0         0
         0         0         0         0         0         0         0         0
         0         0         0         0         0         0         0         0
         0         0         0         0         0         0         0         0
         0         0         0         0         0         0         0         0
         0         0         0         0         0         0         0         0
         0         0         0         0         0         0         0         0
         0         0         0         0         0         0         0         0
         0         0         0         0         0         0         0         0
         0         0         0         0         0         0         0         0
         0         0         0         0         0         0         0         0
         0         0         0         0         0         0         0         0
         0         0         0         0         0         0         0         0
         0         0         0         0         0         0         0         0
         0         0         0         0         0         0         0         0
         0         0         0         0         0         0         0         0
         0         0         0         0         0         0         0         0
         0         0         0         0         0         0         0         0
         0         0         0         0         0         0         0         0
         0         0         0         0         0         0         0         0
         0         0         0         0         0         0         0         0
         0         0         0         0         0         0         0         0
         0         0         0         0         0         0         0         0
         0         0         0         0         0         0         0         0
         0         0         0         0         0         0         0         0
         0         0         0         0         0         0         0         0
         0         0         0         0         0         0         0         0
         0         0         0         0         0         0         0         0
         0         0         0         0         0         0         0         0
         0         0         0         0         0         0         0         0
         0         0         0         0         0         0         0         0
         0         0         0         0         0         0         0         0
         0         0         0         0         0         0         0         0
         0         0         0         0         0         0         0         0
         0         0         0         0         0         0         0         0
         0         0         0         0         0         0         0         0
         0         0         0         0         0         0         0         0
         0         0         0         0         0         0         0         0
         0         0         0         0         0         0         0         0
         0         0         0         0         0         0         0         0
         0         0         0         0         0         0         0         0
         0         0         0         0         0         0         0         0
         0         0         0         0         0         0         0         0
         0         0         0         0         0         0         0         0
         0         0         0         0         0         0         0         0
         0         0         0         0         0         0         0         0
         0         0         0         0         0         0         0         0
         0         0         0         0         0         0         0         0
         0         0         0         0         0         0         0         0
         0         0         0         0         0         0         0         0
         0         0         0         0         0         0         0         0
         0         0         0         0         0         0         0         0
         0         0         0         0         0         0         0         0
         0         0         0         0         0         0         0         0
         0         0         0         0         0         0         0         0
         0         0         0         0         0         0         0         0
         0         0         0         0         0         0         0         0
         0         0         0         0         0         0         0         0
         0         0         0         0         0         0         0         0
         0         0         0         0         0         0         0         0
         0         0         0         0         0         0         0         0
         0         0         0         0         0         0         0         0
         0         0         0         0         0         0         0         0
         0         0         0         0         0         0         0         0
         0         0         0         0         0         0         0         0
         0         0         0         0         0         0         0         0
         0         0         0         0         0         0         0         0
         0         0         0         0         0         0         0         0
         0         0         0         0         0         0         0         0
         0         0         0         0         0         0         0         0
         0         0         0         0         0         0         0         0
         0         0         0         0         0         0         0         0
         0         0         0         0         0         0         0         0
         0         0         0         0         0         0         0         0
         0         0         0         0         0         0         0         0
         0         0         0         0         0         0         0         0
         0         0         0         0         0         0         0         0
         0         0         0         0         0         0         0         0
         0         0         0         0         0         0         0         0
         0         0         0         0         0         0         0         0
         0         0         0         0         0         0         0         0
         0         0         0         0         0         0         0         0
         0         0         0         0         0         0         0         0
         0         0         0         0         0         0         0         0
         0         0         0         0         0         0         0         0
         0         0         0         0         0         0         0         0
         0         0         0         0         0         0         0         0
         0         0         0         0         0         0         0         0
         0         0         0         0         0         0         0         0
         0         0         0         0         0         0         0         0
         0         0         0         0         0         0         0         0
         0         0         0         0         0         0         0         0
         0         0         0         0         0         0         0         0
         0         0         0         0         0         0         0         0
         0         0         0         0         0         0         0         0
         0         0         0         0         0         0         0         0
         0         0         0         0         0         0         0         0
         0         0         0         0         0         0         0         0
         0         0         0         0         0         0         0         0
         0         0         0         0         0         0         0         0
         0         0         0         0         0         0         0         0
         0         0         0         0         0         0         0         0
         0         0         0         0         0         0         0         0
         0         0         0         0         0         0         0         0
         0         0         0         0         0         0         0         0
         0         0         0         0         0         0         0         0
         0         0         0         0         0         0         0         0
         0         0         0         0         0         0         0         0
         0         0         0         0         0         0         0         0
         0         0         0         0         0         0         0         0
         0         0         0         0         0         0         0         0
         0         0         0         0         0         0         0         0
         0         0         0         0         0         0         0         0
         0         0         0         0         0         0         0         0
         0         0         0         0         0         0         0         0
         0         0         0         0         0         0         0         0
         0         0         0         0         0         0         0         0
         0         0         0         0         0         0         0         0
         0         0         0         0         0         0         0         0
         0         0         0         0         0         0         0         0
         0         0         0         0         0         0         0         0
         0         0         0         0         0         0         0         0
         0         0         0         0         0         0         0         0
         0         0         0         0         0         0         0         0
         0         0         0         0         0         0         0         0
         0         0         0         0         0         0         0         0
         0         0         0         0         0         0         0         0
         0         0         0         0         0         0         0         0
         0         0         0         0         0         0         0         0
         0         0         0         0         0         0         0         0
         0         0         0         0         0         0         0         0
         0         0         0         0         0         0         0         0
         0         0         0         0         0         0         0         0
         0         0         0         0         0         0         0         0
         0         0         0         0         0         0         0         0
         0         0         0         0         0         0         0         0
         0         0         0         0         0         0         0         0
         0         0         0         0         0         0         0         0
         0         0         0         0         0         0         0         0
         0         0         0         0         0         0         0         0
         0         0         0         0         0         0         0         0
         0         0         0         0         0         0         0         0
         0         0         0         0         0         0         0         0
         0         0         0         0         0         0         0         0
         0         0         0         0         0         0         0         0
         0         0         0         0         0         0         0         0
         0         0         0         0         0         0         0         0
         0         0         0         0         0         0         0         0
         0         0         0         0         0         0         0         0
         0         0         0         0         0         0         0         0
         0         0         0         0         0         0         0         0
         0         0         0         0         0         0         0         0
         0         0         0         0         0         0         0         0
         0         0         0         0         0         0         0         0
         0         0         0         0         0         0         0         0
         0         0         0         0         0         0         0         0
         0         0         0         0         0         0         0         0
         0         0         0         0         0         0         0         0
         0         0         0         0         0         0         0         0
         0         0         0         0         0         0         0         0
         0         0         0         0         0         0         0         0
         0         0         0         0         0         0         0         0
         0         0         0         0         0         0         0         0
         0         0         0         0         0         0         0         0
         0         0         0         0         0         0         0         0
         0         0         0         0         0         0         0         0
         0         0         0         0         0         0         0         0
         0         0         0         0         0         0         0         0
         0         0         0         0         0         0         0         0
         0         0         0         0         0         0         0         0
         0         0         0         0         0         0         0         0
         0         0         0         0         0         0         0         0
         0         0         0         0         0         0         0         0
         0         0         0         0         0         0         0         0
         0         0         0         0         0         0         0         0
         0         0         0         0         0         0         0         0
         0         0         0         0         0         0         0         0
         0         0         0         0         0         0         0         0
         0         0         0         0         0         0         0         0
         0         0         0         0         0         0         0         0
         0         0         0         0         0         0         0         0
         0         0         0         0         0         0         0         0
         0         0         0         0         0         0         0         0
         0         0         0         0         0         0         0         0
         0         0         0         0         0         0         0         0
         0         0         0         0         0         0         0         0
         0         0         0         0         0         0         0         0
         0         0         0         0         0         0         0         0
         0         0         0         0         0         0         0         0
         0         0         0         0         0         0         0         0
         0         0         0         0         0         0         0         0
         0         0         0         0         0         0         0         0
         0         0         0         0         0         0         0         0
         0         0         0         0         0         0         0         0
         0         0         0         0         0         0         0         0
         0         0         0         0         0         0         0         0
         0         0         0         0         0         0         0         0
         0         0         0         0         0         0         0         0
         0         0         0         0         0         0         0         0
         0         0         0         0         0         0         0         0
         0         0         0         0         0         0         0         0
         0         0         0         0         0         0         0         0
         0         0         0         0         0         0         0         0
         0         0         0         0         0         0         0         0
         0         0         0         0         0         0         0         0
         0         0         0         0         0         0         0         0
         0         0         0         0         0         0         0         0
         0         0         0         0         0         0         0         0
         0         0         0         0         0         0         0         0
         0         0         0         0         0         0         0         0
         0         0         0         0         0         0         0         0
         0         0         0         0         0         0         0         0
         0         0         0         0         0         0         0         0
         0         0         0         0         0         0         0         0
         0         0         0         0         0         0         0         0
         0         0         0         0         0         0         0         0
         0         0         0         0         0         0         0         0
         0         0         0         0         0         0         0         0
         0         0         0         0         0         0         0         0
         0         0         0         0         0         0         0         0
         0         0         0         0         0         0         0         0
         0         0         0         0         0         0         0         0
         0         0         0         0         0         0         0         0
         0         0         0         0         0         0         0         0
         0         0         0         0         0         0         0         0
         0         0         0         0         0         0         0         0
         0         0         0         0         0         0         0         0
         0         0         0         0         0         0         0         0
         0         0         0         0         0         0         0         0
         0         0         0         0         0         0         0         0
         0         0         0         0         0         0         0         0
         0         0         0         0         0         0         0         0
         0         0         0         0         0         0         0         0
         0         0         0         0         0         0         0         0
         0         0         0         0         0         0         0         0
         0         0         0         0         0         0         0         0
         0         0         0         0         0         0         0         0
         0         0         0         0         0         0         0         0
         0         0         0         0         0         0         0         0
         0         0         0         0         0         0         0         0
         0         0         0         0         0         0         0         0
         0         0         0         0         0         0         0         0
         0         0         0         0         0         0         0         0
         0         0         0         0         0         0         0         0
         0         0         0         0         0         0         0         0
         0         0         0         0         0         0         0         0
         0         0         0         0         0         0         0         0
         0         0         0         0         0         0         0         0
         0         0         0         0         0         0         0         0
         0         0         0         0         0         0         0         0
         0         0         0         0         0         0         0         0
         0         0         0         0         0         0         0         0
         0         0         0         0         0         0         0         0
         0         0         0         0         0         0         0         0
         0         0         0         0         0         0         0         0
         0         0         0         0         0         0         0         0
         0         0         0         0         0         0         0         0
         0         0         0         0         0         0         0         0
         0         0         0         0         0         0         0         0
         0         0         0         0         0         0         0         0
         0         0         0         0         0         0         0         0
         0         0         0         0         0         0         0         0
         0         0         0         0         0         0         0         0
         0         0         0         0         0         0         0         0
         0         0         0         0         0         0         0         0
         0         0         0         0         0         0         0         0
         0         0         0         0         0         0         0         0
         0         0         0         0         0         0         0         0
         0         0         0         0         0         0         0         0
         0         0         0         0         0         0         0         0
         0         0         0         0         0         0         0         0
         0         0         0         0         0         0         0         0
         0         0         0         0         0         0         0         0
         0         0         0         0         0         0         0         0
         0         0         0         0         0         0         0         0
         0         0         0         0         0         0         0         0
         0         0         0         0         0         0         0         0
         0         0         0         0         0         0         0         0
         0         0         0         0         0         0         0         0
         0         0         0         0         0         0         0         0
         0         0         0         0         0         0         0         0
         0         0         0         0         0         0         0         0
         0         0         0         0         0         0         0         0
         0         0         0         0         0         0         0         0
         0         0         0         0         0         0         0         0
         0         0         0         0         0         0         0         0
         0         0         0         0         0         0         0         0
         0         0         0         0         0         0         0         0
         0         0         0         0         0         0         0         0
         0         0         0         0         0         0         0         0
         0         0         0         0         0         0         0         0
         0         0         0         0         0         0         0         0
         0         0         0         0         0         0         0         0
         0         0         0         0         0         0         0         0
         0         0         0         0         0         0         0         0
         0         0         0         0         0         0         0         0
         0         0         0         0         0         0         0         0
         0         0         0         0         0         0         0         0
         0         0         0         0         0         0         0         0
         0         0         0         0         0         0         0         0
         0         0         0         0         0         0         0         0
         0         0         0         0         0         0         0         0
         0         0         0         0         0         0         0         0
         0         0         0         0         0         0         0         0
         0         0         0         0         0         0         0         0
         0         0         0         0         0         0         0         0
         0         0         0         0         0         0         0         0
         0         0         0         0         0         0         0         0
         0         0         0         0         0         0         0         0
         0         0         0         0         0         0         0         0
         0         0         0         0         0         0         0         0
         0         0         0         0         0         0         0         0
         0         0         0         0         0         0         0         0
         0         0         0         0         0         0         0         0
         0         0         0         0         0         0         0         0
         0         0         0         0         0         0         0         0
         0         0         0         0         0         0         0         0
         0         0         0         0         0         0         0         0
         0         0         0         0         0         0         0         0
         0         0         0         0         0         0         0         0
         0         0         0         0         0         0         0         0
         0         0         0         0         0         0         0         0
         0         0         0         0         0         0         0         0
         0         0         0         0         0         0         0         0
         0         0         0         0         0         0         0         0
         0         0         0         0         0         0         0         0
         0         0         0         0         0         0         0         0
         0         0         0         0         0         0         0         0
         0         0         0         0         0         0         0         0
         0         0         0         0         0         0         0         0
         0         0         0         0         0         0         0         0
         0         0         0         0         0         0         0         0
         0         0         0         0         0         0         0         0
         0         0         0         0         0         0         0         0
         0         0         0         0         0         0         0         0
         0         0         0         0         0         0         0         0
         0         0         0         0         0         0         0         0
         0         0         0         0         0         0         0         0
         0         0         0         0         0         0         0         0
         0         0         0         0         0         0         0         0
         0         0         0         0         0         0         0         0
         0         0         0         0         0         0         0         0
         0         0         0         0         0         0         0         0
         0         0         0         0         0         0         0         0
         0         0         0         0         0         0         0         0
         0         0         0         0         0         0         0         0
         0         0         0         0         0         0         0         0
         0         0         0         0         0         0         0         0
         0         0         0         0         0         0         0         0
         0         0         0         0         0         0         0         0
         0         0         0         0         0         0         0         0
         0         0         0         0         0         0         0         0
         0         0         0         0         0         0         0         0
         0         0         0         0         0         0         0         0
         0         0         0         0         0         0         0         0
         0         0         0         0         0         0         0         0
         0         0         0         0         0         0         0         0
         0         0         0         0         0         0         0         0
         0         0         0         0         0         0         0         0
         0         0         0         0         0         0         0         0
         0         0         0         0         0         0         0         0
         0         0         0         0         0         0         0         0
         0         0         0         0         0         0         0         0
         0         0         0         0         0         0         0         0
         0         0         0         0         0         0         0         0
         0         0         0         0         0         0         0         0
         0         0         0         0         0         0         0         0
         0         0         0         0         0         0         0         0
         0         0         0         0         0         0         0         0
         0         0         0         0         0         0         0         0
         0         0         0         0         0         0         0         0
         0         0         0         0         0         0         0         0
         0         0         0         0         0         0         0         0
         0         0         0         0         0         0         0         0
         0         0         0         0         0         0         0         0
         0         0         0         0         0         0         0         0
         0         0         0         0         0         0         0         0
         0         0         0         0         0         0         0         0
         0         0         0         0         0         0         0         0
         0         0         0         0         0         0         0         0
         0         0         0         0         0         0         0         0
         0         0         0         0         0         0         0         0
         0         0         0         0         0         0         0         0
         0         0         0         0         0         0         0         0
         0         0         0         0         0         0         0         0
         0         0         0         0         0         0         0         0
         0         0         0         0         0         0         0         0
         0         0         0         0         0         0         0         0
         0         0         0         0         0         0         0         0
         0         0         0         0         0         0         0         0
         0         0         0         0         0         0         0         0
         0         0         0         0         0         0         0         0
         0         0         0         0         0         0         0         0
         0         0         0         0         0         0         0         0
         0         0         0         0         0         0         0         0
         0         0         0         0         0         0         0         0
         0         0         0         0         0         0         0         0
         0         0         0         0         0         0         0         0
         0         0         0         0         0         0         0         0
         0         0         0         0         0         0         0         0
         0         0         0         0         0         0         0         0
         0         0         0         0         0         0         0         0
         0         0         0         0         0         0         0         0
         0         0         0         0         0         0         0         0
         0         0         0         0         0         0         0         0
         0         0         0         0         0         0         0         0
         0         0         0         0         0         0         0         0
         0         0         0         0         0         0         0         0
         0         0         0         0         0         0         0         0
         0         0         0         0         0         0         0         0
         0         0         0         0         0         0         0         0
         0         0         0         0         0         0         0         0
         0         0         0         0         0         0         0         0
         0         0         0         0         0         0         0         0
         0         0         0         0         0         0         0         0
         0         0         0         0         0         0         0         0
         0         0         0         0         0         0         0         0
         0         0         0         0         0         0         0         0
         0         0         0         0         0         0         0         0
         0         0         0         0         0         0         0         0
         0         0         0         0         0         0         0         0
         0         0         0         0         0         0         0         0
         0         0         0         0         0         0         0         0
         0         0         0         0         0         0         0         0
         0         0         0         0         0         0         0         0
         0         0         0         0         0         0         0         0
         0         0         0         0         0         0         0         0
         0         0         0         0         0         0         0         0
         0         0         0         0         0         0         0         0
         0         0         0         0         0         0         0         0
         0         0         0         0         0         0         0         0
         0         0         0         0         0         0         0         0
         0         0         0         0         0         0         0         0
         0         0         0         0         0         0         0         0
         0         0         0         0         0         0         0         0
         0         0         0         0         0         0         0         0
         0         0         0         0         0         0         0         0
         0         0         0         0         0         0         0         0
         0         0         0         0         0         0         0         0
         0         0         0         0         0         0         0         0
         0         0         0         0         0         0         0         0
         0         0         0         0         0         0         0         0
         0         0         0         0         0         0         0         0
         0         0         0         0         0         0         0         0
         0         0         0         0         0         0         0         0
         0         0         0         0         0         0         0         0
         0         0         0         0         0         0         0         0
         0         0         0         0         0         0         0         0
         0         0         0         0         0         0         0         0
         0         0         0         0         0         0         0         0
         0         0         0         0         0         0         0         0
         0         0         0         0         0         0         0         0
         0         0         0         0         0         0         0         0
         0         0         0         0         0         0         0         0
         0         0         0         0         0         0         0         0
         0         0         0         0         0         0         0         0
         0         0         0         0         0         0         0         0
         0         0         0         0         0         0         0         0
         0         0         0         0         0         0         0         0
         0         0         0         0         0         0         0         0
         0         0         0         0         0         0         0         0
         0         0         0         0         0         0         0         0
         0         0         0         0         0         0         0         0
         0         0         0         0         0         0         0         0
         0         0         0         0         0         0         0         0
         0         0         0         0         0         0         0         0
         0         0         0         0         0         0         0         0
         0         0         0         0         0         0         0         0
         0         0         0         0         0         0         0         0
         0         0         0         0         0         0         0         0
         0         0         0         0         0         0         0         0
         0         0         0         0         0         0         0         0
         0         0         0         0         0         0         0         0
         0         0         0         0         0         0         0         0
         0         0         0         0         0         0         0         0
         0         0         0         0         0         0         0         0
         0         0         0         0         0         0         0         0
         0         0         0         0         0         0         0         0
         0         0         0         0         0         0         0         0
         0         0         0         0         0         0         0         0
         0         0         0         0         0         0         0         0
         0         0         0         0         0         0         0         0
         0         0         0         0         0         0         0         0
         0         0         0         0         0         0         0         0
         0         0         0         0         0         0         0         0
         0         0         0         0         0         0         0         0
         0         0         0         0         0         0         0         0
         0         0         0         0         0         0         0         0
         0         0         0         0         0         0         0         0
         0         0         0         0         0         0         0         0
         0         0         0         0         0         0         0         0
         0         0         0         0         0         0         0         0
         0         0         0         0         0         0         0         0
         0         0         0         0         0         0         0         0
         0         0         0         0         0         0         0         0
         0         0         0         0         0         0         0         0
         0         0         0         0         0         0         0         0
         0         0         0         0         0         0         0         0
         0         0         0         0         0         0         0         0
         0         0         0         0         0         0         0         0
         0         0         0         0         0         0         0         0
         0         0         0         0         0         0         0         0
         0         0         0         0         0         0         0         0
         0         0         0         0         0         0         0         0
         0         0         0         0         0         0         0         0
         0         0         0         0         0         0         0         0
         0         0         0         0         0         0         0         0
         0         0         0         0         0         0         0         0
         0         0         0         0         0         0         0         0
         0         0         0         0         0         0         0         0
         0         0         0         0         0         0         0         0
         0         0         0         0         0         0         0         0
         0         0         0         0         0         0         0         0
         0         0         0         0         0         0         0         0
         0         0         0         0         0         0         0         0
         0         0         0         0         0         0         0         0
         0         0         0         0         0         0         0         0
         0         0         0         0         0         0         0         0
         0         0         0         0         0         0         0         0
         0         0         0         0         0         0         0         0
         0         0         0         0         0         0         0         0
         0         0         0         0         0         0         0         0
         0         0         0         0         0         0         0         0
         0         0         0         0         0         0         0         0
         0         0         0         0         0         0         0         0
         0         0         0         0         0         0         0         0
         0         0         0         0         0         0         0         0
         0         0         0         0         0         0         0         0
         0         0         0         0         0         0         0         0
         0         0         0         0         0         0         0         0
         0         0         0         0         0         0         0         0
         0         0         0         0         0         0         0         0
         0         0         0         0         0         0         0         0
         0         0         0         0         0         0         0         0
         0         0         0         0         0         0         0         0
         0         0         0         0         0         0         0         0
         0         0         0         0         0         0         0         0
         0         0         0         0         0         0         0         0
         0         0         0         0         0         0         0         0
         0         0         0         0         0         0         0         0
         0         0         0         0         0         0         0         0
         0         0         0         0         0         0         0         0
         0         0         0         0         0         0         0         0
         0         0         0         0         0         0         0         0
         0         0         0         0         0         0         0         0
         0         0         0         0         0         0         0         0
         0         0         0         0         0         0         0         0
         0         0         0         0         0         0         0         0
         0         0         0         0         0         0         0         0
         0         0         0         0         0         0         0         0
         0         0         0         0         0         0         0         0
         0         0         0         0         0         0         0         0
         0         0         0         0         0         0         0         0
         0         0         0         0         0         0         0         0
         0         0         0         0         0         0         0         0
         0         0         0         0         0         0         0         0
         0         0         0         0         0         0         0         0
         0         0         0         0         0         0         0         0
         0         0         0         0         0         0         0         0
         0         0         0         0         0         0         0         0
         0         0         0         0         0         0         0         0
         0         0         0         0         0         0         0         0
         0         0         0         0         0         0         0         0
         0         0         0         0         0         0         0         0
         0         0         0         0         0         0         0         0
         0         0         0         0         0         0         0         0
         0         0         0         0         0         0         0         0
         0         0         0         0         0         0         0         0
         0         0         0         0         0         0         0         0
         0         0         0         0         0         0         0         0
         0         0         0         0         0         0         0         0
         0         0         0         0         0         0         0         0
         0         0         0         0         0         0         0         0
         0         0         0         0         0         0         0         0
         0         0         0         0         0         0         0         0
         0         0         0         0         0         0         0         0
         0         0         0         0         0         0         0         0
         0         0         0         0         0         0         0         0
         0         0         0         0         0         0         0         0
         0         0         0         0         0         0         0         0
         0         0         0         0         0         0         0         0
         0         0         0         0         0         0         0         0
         0         0         0         0         0         0         0         0
         0         0         0         0         0         0         0         0
         0         0         0         0         0         0         0         0
         0         0         0         0         0         0         0         0
         0         0         0         0         0         0         0         0
         0         0         0         0         0         0         0         0
         0         0         0         0         0         0         0         0
         0         0         0         0         0         0         0         0
         0         0         0         0         0         0         0         0
         0         0         0         0         0         0         0         0
         0         0         0         0         0         0         0         0
         0         0         0         0         0         0         0         0
         0         0         0         0         0         0         0         0
         0         0         0         0         0         0         0         0
         0         0         0         0         0         0         0         0
         0         0         0         0         0         0         0         0
         0         0         0         0         0         0         0         0
         0         0         0         0         0         0         0         0
         0         0         0         0         0         0         0         0
         0         0         0         0         0         0         0         0
         0         0         0         0         0         0         0         0
         0         0         0         0         0         0         0         0
         0         0         0         0         0         0         0         0
         0         0         0         0         0         0         0         0
         0         0         0         0         0         0         0         0
         0         0         0         0         0         0         0         0
         0         0         0         0         0         0         0         0
         0         0         0         0         0         0         0         0
         0         0         0         0         0         0         0         0
         0         0         0         0         0         0         0         0
         0         0         0         0         0         0         0         0
         0         0         0         0         0         0         0         0
         0         0         0         0         0         0         0         0
         0         0         0         0         0         0         0         0
         0         0         0         0         0         0         0         0
         0         0         0         0         0         0         0         0
         0         0         0         0         0         0         0         0
         0         0         0         0         0         0         0         0
         0         0         0         0         0         0         0         0
         0         0         0         0         0         0         0         0
         0         0         0         0         0         0         0         0
         0         0         0         0         0         0         0         0
         0         0         0         0         0         0         0         0
         0         0         0         0         0         0         0         0
         0         0         0         0         0         0         0         0
         0         0         0         0         0         0         0         0
         0         0         0         0         0         0         0         0
         0         0         0         0         0         0         0         0
         0         0         0         0         0         0         0         0
         0         0         0         0         0         0         0         0
         0         0         0         0         0         0         0         0
         0         0         0         0         0         0         0         0
         0         0         0         0         0         0         0         0
         0         0         0         0         0         0         0         0
         0         0         0         0         0         0         0         0
         0         0         0         0         0         0         0         0
         0         0         0         0         0         0         0         0
         0         0         0         0         0         0         0         0
         0         0         0         0         0         0         0         0
         0         0         0         0         0         0         0         0
         0         0         0         0         0         0         0         0
         0         0         0         0         0         0         0         0
         0         0         0         0         0         0         0         0
         0         0         0         0         0         0         0         0
         0         0         0         0         0         0         0         0
         0         0         0         0         0         0         0         0
         0         0         0         0         0         0         0         0
         0         0         0         0         0         0         0         0
         0         0         0         0         0         0         0         0
         0         0         0         0         0         0         0         0
         0         0         0         0         0         0         0         0
         0         0         0         0         0         0         0         0
         0         0         0         0         0         0         0         0
         0         0         0         0         0         0         0         0
         0         0         0         0         0         0         0         0
         0         0         0         0         0         0         0         0
         0         0         0         0         0         0         0         0
         0         0         0         0         0         0         0         0
         0         0         0         0         0         0         0         0
         0         0         0         0         0         0         0         0
         0         0         0         0         0         0         0         0
         0         0         0         0         0         0         0         0
         0         0         0         0         0         0         0         0
         0         0         0         0         0         0         0         0
         0         0         0         0         0         0         0         0
         0         0         0         0         0         0         0         0
         0         0         0         0         0         0         0         0
         0         0         0         0         0         0         0         0
         0         0         0         0         0         0         0         0
         0         0         0         0         0         0         0         0
         0         0         0         0         0         0         0         0
         0         0         0         0         0         0         0         0
         0         0         0         0         0         0         0         0
         0         0         0         0         0         0         0         0
         0         0         0         0         0         0         0         0
         0         0         0         0         0         0         0         0
         0         0         0         0         0         0         0         0
         0         0         0         0         0         0         0         0
         0         0         0         0         0         0         0         0
         0         0         0         0         0         0         0         0
         0         0         0         0         0         0         0         0
         0         0         0         0         0         0         0         0
         0         0         0         0         0         0         0         0
         0         0         0         0         0         0         0         0
         0         0         0         0         0         0         0         0
         0         0         0         0         0         0         0         0
         0         0         0         0         0         0         0         0
         0         0         0         0         0         0         0         0
         0         0         0         0         0         0         0         0
         0         0         0         0         0         0         0         0
         0         0         0         0         0         0         0         0
         0         0         0         0         0         0         0         0
         0         0         0         0         0         0         0         0
         0         0         0         0         0         0         0         0
         0         0         0         0         0         0         0         0
         0         0         0         0         0         0         0         0
         0         0         0         0         0         0         0         0
         0         0         0         0         0         0         0         0
         0         0         0         0         0         0         0         0
         0         0         0         0         0         0         0         0
         0         0         0         0         0         0         0         0
         0         0         0         0         0         0         0         0
         0         0         0         0         0         0         0         0
         0         0         0         0         0         0         0         0
         0         0         0         0         0         0         0         0
         0         0         0         0         0         0         0         0
         0         0         0         0         0         0         0         0
         0         0         0         0         0         0         0         0
         0         0         0         0         0         0         0         0
         0         0         0         0         0         0         0         0
         0         0         0         0         0         0         0         0
         0         0         0         0         0         0         0         0
         0         0         0         0         0         0         0         0
         0         0         0         0         0         0         0         0
         0         0         0         0         0         0         0         0
         0         0         0         0         0         0         0         0
         0         0         0         0         0         0         0         0
         0         0         0         0         0         0         0         0
         0         0         0         0         0         0         0         0
         0         0         0         0         0         0         0         0
         0         0         0         0         0         0         0         0
         0         0         0         0         0         0         0         0
         0         0         0         0         0         0         0         0
         0         0         0         0         0         0         0         0
         0         0         0         0         0         0         0         0
         0         0         0         0         0         0         0         0
         0         0         0         0         0         0         0         0
         0         0         0         0         0         0         0         0
         0         0         0         0         0         0         0         0
         0         0         0         0         0         0         0         0
         0         0         0         0         0         0         0         0
         0         0         0         0         0         0         0         0
         0         0         0         0         0         0         0         0
         0         0         0         0         0         0         0         0
         0         0         0         0         0         0         0         0
         0         0         0         0         0         0         0         0
         0         0         0         0         0         0         0         0
         0         0         0         0         0         0         0         0
         0         0         0         0         0         0         0         0
         0         0         0         0         0         0         0         0
         0         0         0         0         0         0         0         0
         0         0         0         0         0         0         0         0
         0         0         0         0         0         0         0         0
         0         0         0         0         0         0         0         0
         0         0         0         0         0         0         0         0
         0         0         0         0         0         0         0         0
         0         0         0         0         0         0         0         0
         0         0         0         0         0         0         0         0
         0         0         0         0         0         0         0         0
         0         0         0         0         0         0         0         0
         0         0         0         0         0         0         0         0
         0         0         0         0         0         0         0         0
         0         0         0         0         0         0         0         0
         0         0         0         0         0         0         0         0
         0         0         0         0         0         0         0         0
         0         0         0         0         0         0         0         0
         0         0         0         0         0         0         0         0
         0         0         0         0         0         0         0         0
         0         0         0         0         0         0         0         0
         0         0         0         0         0         0         0         0
         0         0         0         0         0         0         0         0
         0         0         0         0         0         0         0         0
         0         0         0         0         0         0         0         0
         0         0         0         0         0         0         0         0
         0         0         0         0         0         0         0         0
         0         0         0         0         0         0         0         0
         0         0         0         0         0         0         0         0
         0         0         0         0         0         0         0         0
         0         0         0         0         0         0         0         0
         0         0         0         0         0         0         0         0
         0         0         0         0         0         0         0         0
         0         0         0         0         0         0         0         0
         0         0         0         0         0         0         0         0
         0         0         0         0         0         0         0         0
         0         0         0         0         0         0         0         0
         0         0         0         0         0         0         0         0
         0         0         0         0         0         0         0         0
         0         0         0         0         0         0         0         0
         0         0         0         0         0         0         0         0
         0         0         0         0         0         0         0         0
         0         0         0         0         0         0         0         0
         0         0         0         0         0         0         0         0
         0         0         0         0         0         0         0         0
         0         0         0         0         0         0         0         0
         0         0         0         0         0         0         0         0
         0         0         0         0         0         0         0         0
         0         0         0         0         0         0         0         0
         0         0         0         0         0         0         0         0
         0         0         0         0         0         0         0         0
         0         0         0         0         0         0         0         0
         0         0         0         0         0         0         0         0
         0         0         0         0         0         0         0         0
         0         0         0         0         0         0         0         0
         0         0         0         0         0         0         0         0
         0         0         0         0         0         0         0         0
         0         0         0         0         0         0         0         0
         0         0         0         0         0         0         0         0
         0         0         0         0         0         0         0         0
         0         0         0         0         0         0         0         0
         0         0         0         0         0         0         0         0
         0         0         0         0         0         0         0         0
         0         0         0         0         0         0         0         0
         0         0         0         0         0         0         0         0
         0         0         0         0         0         0         0         0
         0         0         0         0         0         0         0         0
         0         0         0         0         0         0         0         0
         0         0         0         0         0         0         0         0
         0         0         0         0         0         0         0         0
         0         0         0         0         0         0         0         0
         0         0         0         0         0         0         0         0
         0         0         0         0         0         0         0         0
         0         0         0         0         0         0         0         0
         0         0         0         0         0         0         0         0
         0         0         0         0         0         0         0         0
         0         0         0         0         0         0         0         0
         0         0         0         0         0         0         0         0
         0         0         0         0         0         0         0         0
         0         0         0         0         0         0         0         0
         0         0         0         0         0         0         0         0
         0         0         0         0         0         0         0         0
         0         0         0         0         0         0         0         0
         0         0         0         0         0         0         0         0
         0         0         0         0         0         0         0         0
         0         0         0         0         0         0         0         0
         0         0         0         0         0         0         0         0
         0         0         0         0         0         0         0         0
         0         0         0         0         0         0         0         0
         0         0         0         0         0         0         0         0
         0         0         0         0         0         0         0         0
         0         0         0         0         0         0         0         0
         0         0         0         0         0         0         0         0
         0         0         0         0         0         0         0         0
         0         0         0         0         0         0         0         0
         0         0         0         0         0         0         0         0
         0         0         0         0         0         0         0         0
         0         0         0         0         0         0         0         0
         0         0         0         0         0         0         0         0
         0         0         0         0         0         0         0         0
         0         0         0         0         0         0         0         0
         0         0         0         0         0         0         0         0
         0         0         0         0         0         0         0         0
         0         0         0         0         0         0         0         0
         0         0         0         0         0         0         0         0
         0         0         0         0         0         0         0         0
         0         0         0         0         0         0         0         0
         0         0         0         0         0         0         0         0
         0         0         0         0         0         0         0         0
         0         0         0         0         0         0         0         0
         0         0         0         0         0         0         0         0
         0         0         0         0         0         0         0         0
         0         0         0         0         0         0         0         0
         0         0         0         0         0         0         0         0
         0         0         0         0         0         0         0         0
         0         0         0         0         0         0         0         0
         0         0         0         0         0         0         0         0
         0         0         0         0         0         0         0         0
         0         0         0         0         0         0         0         0
         0         0         0         0         0         0         0         0
         0         0         0         0         0         0         0         0
         0         0         0         0         0         0         0         0
         0         0         0         0         0         0         0         0
         0         0         0         0         0         0         0         0
         0         0         0         0         0         0         0         0
         0         0         0         0         0         0         0         0
         0         0         0         0         0         0         0         0
         0         0         0         0         0         0         0         0
         0         0         0         0         0         0         0         0
         0         0         0         0         0         0         0         0
         0         0         0         0         0         0         0         0
         0         0         0         0         0         0         0         0
         0         0         0         0         0         0         0         0
         0         0         0         0         0         0         0         0
         0         0         0         0         0         0         0         0
         0         0         0         0         0         0         0         0
         0         0         0         0         0         0         0         0
         0         0         0         0         0         0         0         0
         0         0         0         0         0         0         0         0
         0         0         0         0         0         0         0         0
         0         0         0         0         0         0         0         0
         0         0         0         0         0         0         0         0
         0         0         0         0         0         0         0         0
         0         0         0         0         0         0         0         0
         0         0         0         0         0         0         0         0
         0         0         0         0         0         0         0         0
         0         0         0         0         0         0         0         0
         0         0         0         0         0         0         0         0
         0         0         0         0         0         0         0         0
         0         0         0         0         0         0         0         0
         0         0         0         0         0         0         0         0
         0         0         0         0         0         0         0         0
         0         0         0         0         0         0         0         0
         0         0         0         0         0         0         0         0
         0         0         0         0         0         0         0         0
         0         0         0         0         0         0         0         0
         0         0         0         0         0         0         0         0
         0         0         0         0         0         0         0         0
         0         0         0         0         0         0         0         0
         0         0         0         0         0         0         0         0
         0         0         0         0         0         0         0         0
         0         0         0         0         0         0         0         0
         0         0         0         0         0         0         0         0
         0         0         0         0         0         0         0         0
         0         0         0         0         0         0         0         0
         0         0         0         0         0         0         0         0
         0         0         0         0         0         0         0         0
         0         0         0         0         0         0         0         0
         0         0         0         0         0         0         0         0
         0         0         0         0         0         0         0         0
         0         0         0         0         0         0         0         0
         0         0         0         0         0         0         0         0
         0         0         0         0         0         0         0         0
         0         0         0         0         0         0         0         0
         0         0         0         0         0         0         0         0
         0         0         0         0         0         0         0         0
         0         0         0         0         0         0         0         0
         0         0         0         0         0         0         0         0
         0         0         0         0         0         0         0         0
         0         0         0         0         0         0         0         0
         0         0         0         0         0         0         0         0
         0         0         0         0         0         0         0         0
         0         0         0         0         0         0         0         0
         0         0         0         0         0         0         0         0
         0         0         0         0         0         0         0         0
         0         0         0         0         0         0         0         0
         0         0         0         0         0         0         0         0
         0         0         0         0         0         0         0         0
         0         0         0         0         0         0         0         0
         0         0         0         0         0         0         0         0
         0         0         0         0         0         0         0         0
         0         0         0         0         0         0         0         0
         0         0         0         0         0         0         0         0
         0         0         0         0         0         0         0         0
         0         0         0         0         0         0         0         0
         0         0         0         0         0         0         0         0
         0         0         0         0         0         0         0         0
         0         0         0         0         0         0         0         0
         0         0         0         0         0         0         0         0
         0         0         0         0         0         0         0         0
         0         0         0         0         0         0         0         0
         0         0         0         0         0         0         0         0
         0         0         0         0         0         0         0         0
         0         0         0         0         0         0         0         0
         0         0         0         0         0         0         0         0
         0         0         0         0         0         0         0         0
         0         0         0         0         0         0         0         0
         0         0         0         0         0         0         0         0
         0         0         0         0         0         0         0         0
         0         0         0         0         0         0         0         0
         0         0         0         0         0         0         0         0
         0         0         0         0         0         0         0         0
         0         0         0         0         0         0         0         0
         0         0         0         0         0         0         0         0
         0         0         0         0         0         0         0         0
         0         0         0         0         0         0         0         0
         0         0         0         0         0         0         0         0
         0         0         0         0         0         0         0         0
         0         0         0         0         0         0         0         0
         0         0         0         0         0         0         0         0
         0         0         0         0         0         0         0         0
         0         0         0         0         0         0         0         0
         0         0         0         0         0         0         0         0
         0         0         0         0         0         0         0         0
         0         0         0         0         0         0         0         0
         0         0         0         0         0         0         0         0
         0         0         0         0         0         0         0         0
         0         0         0         0         0         0         0         0
         0         0         0         0         0         0         0         0
         0         0         0         0         0         0         0         0
         0         0         0         0         0         0         0         0
         0         0         0         0         0         0         0         0
         0         0         0         0         0         0         0         0
         0         0         0         0         0         0         0         0
         0         0         0         0         0         0         0         0
         0         0         0         0         0         0         0         0
         0         0         0         0         0         0         0         0
         0         0         0         0         0         0         0         0
         0         0         0         0         0         0         0         0
         0         0         0         0         0         0         0         0
         0         0         0         0         0         0         0         0
         0         0         0         0         0         0         0         0
         0         0         0         0         0         0         0         0
         0         0         0         0         0         0         0         0
         0         0         0         0         0         0         0         0
         0         0         0         0         0         0         0         0
         0         0         0         0         0         0         0         0
         0         0         0         0         0         0         0         0
         0         0         0         0         0         0         0         0
         0         0         0         0         0         0         0         0
         0         0         0         0         0         0         0         0
         0         0         0         0         0         0         0         0
         0         0         0         0         0         0         0         0
         0         0         0         0         0         0         0         0
         0         0         0         0         0         0         0         0
         0         0         0         0         0         0         0         0
         0         0         0         0         0         0         0         0
         0         0         0         0         0         0         0         0
         0         0         0         0         0         0         0         0
         0         0         0         0         0         0         0         0
         0         0         0         0         0         0         0         0
         0         0         0         0         0         0         0         0
         0         0         0         0         0         0         0         0
         0         0         0         0         0         0         0         0
         0         0         0         0         0         0         0         0
         0         0         0         0         0         0         0         0
         0         0         0         0         0         0         0         0
         0         0         0         0         0         0         0         0
         0         0         0         0         0         0         0         0
         0         0         0         0         0         0         0         0
         0         0         0         0         0         0         0         0
         0         0         0         0         0         0         0         0
         0         0         0         0         0         0         0         0
         0         0         0         0         0         0         0         0
         0         0         0         0         0         0         0         0
         0         0         0         0         0         0         0         0
         0         0         0         0         0         0         0         0
         0         0         0         0         0         0         0         0
         0         0         0         0         0         0         0         0
         0         0         0         0         0         0         0         0
         0         0         0         0         0         0         0         0
         0         0         0         0         0         0         0         0
         0         0         0         0         0         0         0         0
         0         0         0         0         0         0         0         0
         0         0         0         0         0         0         0         0
         0         0         0         0         0         0         0         0
         0         0         0         0         0         0         0         0
         0         0         0         0         0         0         0         0
         0         0         0         0         0         0         0         0
         0         0         0         0         0         0         0         0
         0         0         0         0         0         0         0         0
         0         0         0         0         0         0         0         0
         0         0         0         0         0         0         0         0
         0         0         0         0         0         0         0         0
         0         0         0         0         0         0         0         0
         0         0         0         0         0         0         0         0
         0         0         0         0         0         0         0         0
         0         0         0         0         0         0         0         0
         0         0         0         0         0         0         0         0
         0         0         0         0         0         0         0         0
         0         0         0         0         0         0         0         0
         0         0         0         0         0         0         0         0
         0         0         0         0         0         0         0         0
         0         0         0         0         0         0         0         0
         0         0         0         0         0         0         0         0
         0         0         0         0         0         0         0         0
         0         0         0         0         0         0         0         0
         0         0         0         0         0         0         0         0
         0         0         0         0         0         0         0         0
         0         0         0         0         0         0         0         0
         0         0         0         0         0         0         0         0
         0         0         0         0         0         0         0         0
         0         0         0         0         0         0         0         0
         0         0         0         0         0         0         0         0
         0         0         0         0         0         0         0         0
         0         0         0         0         0         0         0         0
         0         0         0         0         0         0         0         0
         0         0         0         0         0         0         0         0
         0         0         0         0         0         0         0         0
         0         0         0         0         0         0         0         0
         0         0         0         0         0         0         0         0
         0         0         0         0         0         0         0         0
         0         0         0         0         0         0         0         0
         0         0         0         0         0         0         0         0
         0         0         0         0         0         0         0         0
         0         0         0         0         0         0         0         0
         0         0         0         0         0         0         0         0
         0         0         0         0         0         0         0         0
         0         0         0         0         0         0         0         0
         0         0         0         0         0         0         0         0
         0         0         0         0         0         0         0         0
         0         0         0         0         0         0         0         0
         0         0         0         0         0         0         0         0
         0         0         0         0         0         0         0         0
         0         0         0         0         0         0         0         0
         0         0         0         0         0         0         0         0
         0         0         0         0         0         0         0         0
         0         0         0         0         0         0         0         0
         0         0         0         0         0         0         0         0
         0         0         0         0         0         0         0         0
         0         0         0         0         0         0         0         0
         0         0         0         0         0         0         0         0
         0         0         0         0         0         0         0         0
         0         0         0         0         0         0         0         0
         0         0         0         0         0         0         0         0
         0         0         0         0         0         0         0         0
         0         0         0         0         0         0         0         0
         0         0         0         0         0         0         0         0
         0         0         0         0         0         0         0         0
         0         0         0         0         0         0         0         0
         0         0         0         0         0         0         0         0
         0         0         0         0         0         0         0         0
         0         0         0         0         0         0         0         0
         0         0         0         0         0         0         0         0
         0         0         0         0         0         0         0         0
         0         0         0         0         0         0         0         0
         0         0         0         0         0         0         0         0
         0         0         0         0         0         0         0         0
         0         0         0         0         0         0         0         0
         0         0         0         0         0         0         0         0
         0         0         0         0         0         0         0         0
         0         0         0         0         0         0         0         0
         0         0         0         0         0         0         0         0
         0         0         0         0         0         0         0         0
         0         0         0         0         0         0         0         0
         0         0         0         0         0         0         0         0
         0         0         0         0         0         0         0         0
         0         0         0         0         0         0         0         0
         0         0         0         0         0         0         0         0
         0         0         0         0         0         0         0         0
         0         0         0         0         0         0         0         0
         0         0         0         0         0         0         0         0
         0         0         0         0         0         0         0         0
         0         0         0         0         0         0         0         0
         0         0         0         0         0         0         0         0
         0         0         0         0         0         0         0         0
         0         0         0         0         0         0         0         0
         0         0         0         0         0         0         0         0
         0         0         0         0         0         0         0         0
         0         0         0         0         0         0         0         0
         0         0         0         0         0         0         0         0
         0         0         0         0         0         0         0         0
         0         0         0         0         0         0         0         0
         0         0         0         0         0         0         0         0
         0         0         0         0         0         0         0         0
         0         0         0         0         0         0         0         0
         0         0         0         0         0         0         0         0
         0         0         0         0         0         0         0         0
         0         0         0         0         0         0         0         0
         0         0         0         0         0         0         0         0
         0         0         0         0         0         0         0         0
         0         0         0         0         0         0         0         0
         0         0         0         0         0         0         0         0
         0         0         0         0         0         0         0         0
         0         0         0         0         0         0         0         0
         0         0         0         0         0         0         0         0
         0         0         0         0         0         0         0         0
         0         0         0         0         0         0         0         0
         0         0         0         0         0         0         0         0
         0         0         0         0         0         0         0         0
         0         0         0         0         0         0         0         0
         0         0         0         0         0         0         0         0
         0         0         0         0         0         0         0         0
         0         0         0         0         0         0         0         0
         0         0         0         0         0         0         0         0
         0         0         0         0         0         0         0         0
         0         0         0         0         0         0         0         0
         0         0         0         0         0         0         0         0
         0         0         0         0         0         0         0         0
         0         0         0         0         0         0         0         0
         0         0         0         0         0         0         0         0
         0         0         0         0         0         0         0         0
         0         0         0         0         0         0         0         0
         0         0         0         0         0         0         0         0
         0         0         0         0         0         0         0         0
         0         0         0         0         0         0         0         0
         0         0         0         0         0         0         0         0
         0         0         0         0         0         0         0         0
         0         0         0         0         0         0         0         0
         0         0         0         0         0         0         0         0
         0         0         0         0         0         0         0         0
         0         0         0         0         0         0         0         0
         0         0         0         0         0         0         0         0
         0         0         0         0         0         0         0         0
         0         0         0         0         0         0         0         0
         0         0         0         0         0         0         0         0
         0         0         0         0         0         0         0         0
         0         0         0         0         0         0         0         0
         0         0         0         0         0         0         0         0
         0         0         0         0         0         0         0         0
         0         0         0         0         0         0         0         0
         0         0         0         0         0         0         0         0
         0         0         0         0         0         0         0         0
         0         0         0         0         0         0         0         0
         0         0         0         0         0         0         0         0
         0         0         0         0         0         0         0         0
         0         0         0         0         0         0         0         0
         0         0         0         0         0         0         0         0
         0         0         0         0         0         0         0         0
         0         0         0         0         0         0         0         0
         0         0         0         0         0         0         0         0
         0         0         0         0         0         0         0         0
         0         0         0         0         0         0         0         0
         0         0         0         0         0         0         0         0
         0         0         0         0         0         0         0         0
         0         0         0         0         0         0         0         0
         0         0         0         0         0         0         0         0
         0         0         0         0         0         0         0         0
         0         0         0         0         0         0         0         0
         0         0         0         0         0         0         0         0
         0         0         0         0         0         0         0         0
         0         0         0         0         0         0         0         0
         0         0         0         0         0         0         0         0
         0         0         0         0         0         0         0         0
         0         0         0         0         0         0         0         0
         0         0         0         0         0         0         0         0
         0         0         0         0         0         0         0         0
         0         0         0         0         0         0         0         0
         0         0         0         0         0         0         0         0
         0         0         0         0         0         0         0         0
         0         0         0         0         0         0         0         0
         0         0         0         0         0         0         0         0
         0         0         0         0         0         0         0         0
         0         0         0         0         0         0         0         0
         0         0         0         0         0         0         0         0
         0         0         0         0         0         0         0         0
         0         0         0         0         0         0         0         0
         0         0         0         0         0         0         0         0
         0         0         0         0         0         0         0         0
         0         0         0         0         0         0         0         0
         0         0         0         0         0         0         0         0
         0         0         0         0         0         0         0         0
         0         0         0         0         0         0         0         0
         0         0         0         0         0         0         0         0
         0         0         0         0         0         0         0         0
         0         0         0         0         0         0         0         0
         0         0         0         0         0         0         0         0
         0         0         0         0         0         0         0         0
         0         0         0         0         0         0         0         0
         0         0         0         0         0         0         0         0
         0         0         0         0         0         0         0         0
         0         0         0         0         0         0         0         0
         0         0         0         0         0         0         0         0
         0         0         0         0         0         0         0         0
         0         0         0         0         0         0         0         0
         0         0         0         0         0         0         0         0
         0         0         0         0         0         0         0         0
         0         0         0         0         0         0         0         0
         0         0         0         0         0         0         0         0
         0         0         0         0         0         0         0         0
         0         0         0         0         0         0         0         0
         0         0         0         0         0         0         0         0
         0         0         0         0         0         0         0         0
         0         0         0         0         0         0         0         0
         0         0         0         0         0         0         0         0
         0         0         0         0         0         0         0         0
         0         0         0         0         0         0         0         0
         0         0         0         0         0         0         0         0
         0         0         0         0         0         0         0         0
         0         0         0         0         0         0         0         0
         0         0         0         0         0         0         0         0
         0         0         0         0         0         0         0         0
         0         0         0         0         0         0         0         0
         0         0         0         0         0         0         0         0
         0         0         0         0         0         0         0         0
         0         0         0         0         0         0         0         0
         0         0         0         0         0         0         0         0
         0         0         0         0         0         0         0         0
         0         0         0         0         0         0         0         0
         0         0         0         0         0         0         0         0
         0         0         0         0         0         0         0         0
         0         0         0         0         0         0         0         0
         0         0         0         0         0         0         0         0
         0         0         0         0         0         0         0         0
         0         0         0         0         0         0         0         0
         0         0         0         0         0         0         0         0
         0         0         0         0         0         0         0         0
         0         0         0         0         0         0         0         0
         0         0         0         0         0         0         0         0
         0         0         0         0         0         0         0         0
         0         0         0         0         0         0         0         0
         0         0         0         0         0         0         0         0
         0         0         0         0         0         0         0         0
         0         0         0         0         0         0         0         0
         0         0         0         0         0         0         0         0
         0         0         0         0         0         0         0         0
         0         0         0         0         0         0         0         0
         0         0         0         0         0         0         0         0
         0         0         0         0         0         0         0         0
         0         0         0         0         0         0         0         0
         0         0         0         0         0         0         0         0
         0         0         0         0         0         0         0         0
         0         0         0         0         0         0         0         0
         0         0         0         0         0         0         0         0
         0         0         0         0         0         0         0         0
         0         0         0         0         0         0         0         0
         0         0         0         0         0         0         0         0
         0         0         0         0         0         0         0         0
         0         0         0         0         0         0         0         0
         0         0         0         0         0         0         0         0
         0         0         0         0         0         0         0         0
         0         0         0         0         0         0         0         0
         0         0         0         0         0         0         0         0
         0         0         0         0         0         0         0         0
         0         0         0         0         0         0         0         0
         0         0         0         0         0         0         0         0
         0         0         0         0         0         0         0         0
         0         0         0         0         0         0         0         0
         0         0         0         0         0         0         0         0
         0         0         0         0         0         0         0         0
         0         0         0         0         0         0         0         0
         0         0         0         0         0         0         0         0
         0         0         0         0         0         0         0         0
         0         0         0         0         0         0         0         0
         0         0         0         0         0         0         0         0
         0         0         0         0         0         0         0         0
         0         0         0         0         0         0         0         0
         0         0         0         0         0         0         0         0
         0         0         0         0         0         0         0         0
         0         0         0         0         0         0         0         0
         0         0         0         0         0         0         0         0
         0         0         0         0         0         0         0         0
         0         0         0         0         0         0         0         0
         0         0         0         0         0         0         0         0
         0         0         0         0         0         0         0         0
         0         0         0         0         0         0         0         0
         0         0         0         0         0         0         0         0
         0         0         0         0         0         0         0         0
         0         0         0         0         0         0         0         0
         0         0         0         0         0         0         0         0
         0         0         0         0         0         0         0         0
         0         0         0         0         0         0         0         0
         0         0         0         0         0         0         0         0
         0         0         0         0         0         0         0         0
         0         0         0         0         0         0         0         0
         0         0         0         0         0         0         0         0
         0         0         0         0         0         0         0         0
         0         0         0         0         0         0         0         0
         0         0         0         0         0         0         0         0
         0         0         0         0         0         0         0         0
         0         0         0         0         0         0         0         0
         0         0         0         0         0         0         0         0
         0         0         0         0         0         0         0         0
         0         0         0         0         0         0         0         0
         0         0         0         0         0         0         0         0
         0         0         0         0         0         0         0         0
         0         0         0         0         0         0         0         0
         0         0         0         0         0         0         0         0
         0         0         0         0         0         0         0         0
         0         0         0         0         0         0         0         0
         0         0         0         0         0         0         0         0
         0         0         0         0         0         0         0         0
         0         0         0         0         0         0         0         0
         0         0         0         0         0         0         0         0
         0         0         0         0         0         0         0         0
         0         0         0         0         0         0         0         0
         0         0         0         0         0         0         0         0
         0         0         0         0         0         0         0         0
         0         0         0         0         0         0         0         0
         0         0         0         0         0         0         0         0
         0         0         0         0         0         0         0         0
         0         0         0         0         0         0         0         0
         0         0         0         0         0         0         0         0
         0         0         0         0         0         0         0         0
         0         0         0         0         0         0         0         0
         0         0         0         0         0         0         0         0
         0         0         0         0         0         0         0         0
         0         0         0         0         0         0         0         0
         0         0         0         0         0         0         0         0
         0         0         0         0         0         0         0         0
         0         0         0         0         0         0         0         0
         0         0         0         0         0         0         0         0
         0         0         0         0         0         0         0         0
         0         0         0         0         0         0         0         0
         0         0         0         0         0         0         0         0
         0         0         0         0         0         0         0         0
         0         0         0         0         0         0         0         0
         0         0         0         0         0         0         0         0
         0         0         0         0         0         0         0         0
         0         0         0         0         0         0         0         0
         0         0         0         0         0         0         0         0
         0         0         0         0         0         0         0         0
         0         0         0         0         0         0         0         0
         0         0         0         0         0         0         0         0
         0         0         0         0         0         0         0         0
         0         0         0         0         0         0         0         0
         0         0         0         0         0         0         0         0
         0         0         0         0         0         0         0         0
         0         0         0         0         0         0         0         0
         0         0         0         0         0         0         0         0
         0         0         0         0         0         0         0         0
         0         0         0         0         0         0         0         0
         0         0         0         0         0         0         0         0
         0         0         0         0         0         0         0         0
         0         0         0         0         0         0         0         0
         0         0         0         0         0         0         0         0
         0         0         0         0         0         0         0         0
         0         0         0         0         0         0         0         0
         0         0         0         0         0         0         0         0
         0         0         0         0         0         0         0         0
         0         0         0         0         0         0         0         0
         0         0         0         0         0         0         0         0
         0         0         0         0         0         0         0         0
         0         0         0         0         0         0         0         0
         0         0         0         0         0         0         0         0
         0         0         0         0         0         0         0         0
         0         0         0         0         0         0         0         0
         0         0         0         0         0         0         0         0
         0         0         0         0         0         0         0         0
         0         0         0         0         0         0         0         0
         0         0         0         0         0         0         0         0
         0         0         0         0         0         0         0         0
         0         0         0         0         0         0         0         0
         0         0         0         0         0         0         0         0
         0         0         0         0         0         0         0         0
         0         0         0         0         0         0         0         0
         0         0         0         0         0         0         0         0
         0         0         0         0         0         0         0         0
         0         0         0         0         0         0         0         0
         0         0         0         0         0         0         0         0
         0         0         0         0         0         0         0         0
         0         0         0         0         0         0         0         0
         0         0         0         0         0         0         0         0
         0         0         0         0         0         0         0         0
         0         0         0         0         0         0         0         0
         0         0         0         0         0         0         0         0
         0         0         0         0         0         0         0         0
         0         0         0         0         0         0         0         0
         0         0         0         0         0         0         0         0
         0         0         0         0         0         0         0         0
         0         0         0         0         0         0         0         0
         0         0         0         0         0         0         0         0
         0         0         0         0         0         0         0         0
         0         0         0         0         0         0         0         0
         0         0         0         0         0         0         0         0
         0         0         0         0         0         0         0         0
         0         0         0         0         0         0         0         0
         0         0         0         0         0         0         0         0
         0         0         0         0         0         0         0         0
         0         0         0         0         0         0         0         0
         0         0         0         0         0         0         0         0
         0         0         0         0         0         0         0         0
         0         0         0         0         0         0         0         0
         0         0         0         0         0         0         0         0
         0         0         0         0         0         0         0         0
         0         0         0         0         0         0         0         0
         0         0         0         0         0         0         0         0
         0         0         0         0         0         0         0         0
         0         0         0         0         0         0         0         0
         0         0         0         0         0         0         0         0
         0         0         0         0         0         0         0         0
         0         0         0         0         0         0         0         0
         0         0         0         0         0         0         0         0
         0         0         0         0         0         0         0         0
         0         0         0         0         0         0         0         0
         0         0         0         0         0         0         0         0
         0         0         0         0         0         0         0         0
         0         0         0         0         0         0         0         0
         0         0         0         0         0         0         0         0
         0         0         0         0         0         0         0         0
         0         0         0         0         0         0         0         0
         0         0         0         0         0         0         0         0
         0         0         0         0         0         0         0         0
         0         0         0         0         0         0         0         0
         0         0         0         0         0         0         0         0
         0         0         0         0         0         0         0         0
         0         0         0         0         0         0         0         0
         0         0         0         0         0         0         0         0
         0         0         0         0         0         0         0         0
         0         0         0         0         0         0         0         0
         0         0         0         0         0         0         0         0
         0         0         0         0         0         0         0         0
         0         0         0         0         0         0         0         0
         0         0         0         0         0         0         0         0
         0         0         0         0         0         0         0         0
         0         0         0         0         0         0         0         0
         0         0         0         0         0         0         0         0
         0         0         0         0         0         0         0         0
         0         0         0         0         0         0         0         0
         0         0         0         0         0         0         0         0
         0         0         0         0         0         0         0         0
         0         0         0         0         0         0         0         0
         0         0         0         0         0         0         0         0
         0         0         0         0         0         0         0         0
         0         0         0         0         0         0         0         0
         0         0         0         0         0         0         0         0
         0         0         0         0         0         0         0         0
         0         0         0         0         0         0         0         0
         0         0         0         0         0         0         0         0
         0         0         0         0         0         0         0         0
         0         0         0         0         0         0         0         0
         0         0         0         0         0         0         0         0
         0         0         0         0         0         0         0         0
         0         0         0         0         0         0         0         0
         0         0         0         0         0         0         0         0
         0         0         0         0         0         0         0         0
         0         0         0         0         0         0         0         0
         0         0         0         0         0         0         0         0
         0         0         0         0         0         0         0         0
         0         0         0         0         0         0         0         0
         0         0         0         0         0         0         0         0
         0         0         0         0         0         0         0         0
         0         0         0         0         0         0         0         0
         0         0         0         0         0         0         0         0
         0         0         0         0         0         0         0         0
         0         0         0         0         0         0         0         0
         0         0         0         0         0         0         0         0
         0         0         0         0         0         0         0         0
         0         0         0         0         0         0         0         0
         0         0         0         0         0         0         0         0
         0         0         0         0         0         0         0         0
         0         0         0         0         0         0         0         0
         0         0         0         0         0         0         0         0
         0         0         0         0         0         0         0         0
         0         0         0         0         0         0         0         0
         0         0         0         0         0         0         0         0
         0         0         0         0         0         0         0         0
         0         0         0         0         0         0         0         0
         0         0         0         0         0         0         0         0
         0         0         0         0         0         0         0         0
         0         0         0         0         0         0         0         0
         0         0         0         0         0         0         0         0
         0         0         0         0         0         0         0         0
         0         0         0         0         0         0         0         0
         0         0         0         0         0         0         0         0
         0         0         0         0         0         0         0         0
         0         0         0         0         0         0         0         0
         0         0         0         0         0         0         0         0
         0         0         0         0         0         0         0         0
         0         0         0         0         0         0         0         0
         0         0         0         0         0         0         0         0
         0         0         0         0         0         0         0         0
         0         0         0         0         0         0         0         0
         0         0         0         0         0         0         0         0
         0         0         0         0         0         0         0         0
         0         0         0         0         0         0         0         0
         0         0         0         0         0         0         0         0
         0         0         0         0         0         0         0         0
         0         0         0         0         0         0         0         0
         0         0         0         0         0         0         0         0
         0         0         0         0         0         0         0         0
         0         0         0         0         0         0         0         0
         0         0         0         0         0         0         0         0
         0         0         0         0         0         0         0         0
         0         0         0         0         0         0         0         0
         0         0         0         0         0         0         0         0
         0         0         0         0         0         0         0         0
         0         0         0         0         0         0         0         0
         0         0         0         0         0         0         0         0
         0         0         0         0         0         0         0         0
         0         0         0         0         0         0         0         0
         0         0         0         0         0         0         0         0
         0         0         0         0         0         0         0         0
         0         0         0         0         0         0         0         0
         0         0         0         0         0         0         0         0
         0         0         0         0         0         0         0         0
         0         0         0         0         0         0         0         0
         0         0         0         0         0         0         0         0
         0         0         0         0         0         0         0         0
         0         0         0         0         0         0         0         0
         0         0         0         0         0         0         0         0
         0         0         0         0         0         0         0         0
         0         0         0         0         0         0         0         0
         0         0         0         0         0         0         0         0
         0         0         0         0         0         0         0         0
         0         0         0         0         0         0         0         0
         0         0         0         0         0         0         0         0
         0         0         0         0         0         0         0         0
         0         0         0         0         0         0         0         0
         0         0         0         0         0         0         0         0
         0         0         0         0         0         0         0         0
         0         0         0         0         0         0         0         0
         0         0         0         0         0         0         0         0
         0         0         0         0         0         0         0         0
         0         0         0         0         0         0         0         0
         0         0         0         0         0         0         0         0
         0         0         0         0         0         0         0         0
         0         0         0         0         0         0         0         0
         0         0         0         0         0         0         0         0
         0         0         0         0         0         0         0         0
         0         0         0         0         0         0         0         0
         0         0         0         0         0         0         0         0
         0         0         0         0         0         0         0         0
         0         0         0         0         0         0         0         0
         0         0         0         0         0         0         0         0
         0         0         0         0         0         0         0         0
         0         0         0         0         0         0         0         0
         0         0         0         0         0         0         0         0
         0         0         0         0         0         0         0         0
         0         0         0         0         0         0         0         0
         0         0         0         0         0         0         0         0
         0         0         0         0         0         0         0         0
         0         0         0         0         0         0         0         0
         0         0         0         0         0         0         0         0
         0         0         0         0         0         0         0         0
         0         0         0         0         0         0         0         0
         0         0         0         0         0         0         0         0
         0         0         0         0         0         0         0         0
         0         0         0         0         0         0         0         0
         0         0         0         0         0         0         0         0
         0         0         0         0         0         0         0         0
         0         0         0         0         0         0         0         0
         0         0         0         0         0         0         0         0
         0         0         0         0         0         0         0         0
         0         0         0         0         0         0         0         0
         0         0         0         0         0         0         0         0
         0         0         0         0         0         0         0         0
         0         0         0         0         0         0         0         0
         0         0         0         0         0         0         0         0
         0         0         0         0         0         0         0         0
         0         0         0         0         0         0         0         0
         0         0         0         0         0         0         0         0
         0         0         0         0         0         0         0         0
         0         0         0         0         0         0         0         0
         0         0         0         0         0         0         0         0
         0         0         0         0         0         0         0         0
         0         0         0         0         0         0         0         0
         0         0         0         0         0         0         0         0
         0         0         0         0         0         0         0         0
         0         0         0         0         0         0         0         0
         0         0         0         0         0         0         0         0
         0         0         0         0         0         0         0         0
         0         0         0         0         0         0         0         0
         0         0         0         0         0         0         0         0
         0         0         0         0         0         0         0         0
         0         0         0         0         0         0         0         0
         0         0         0         0         0         0         0         0
         0         0         0         0         0         0         0         0
         0         0         0         0         0         0         0         0
         0         0         0         0         0         0         0         0
         0         0         0         0         0         0         0         0
         0         0         0         0         0         0         0         0
         0         0         0         0         0         0         0         0
         0         0         0         0         0         0         0         0
         0         0         0         0         0         0         0         0
         0         0         0         0         0         0         0         0
         0         0         0         0         0         0         0         0
         0         0         0         0         0         0         0         0
         0         0         0         0         0         0         0         0
         0         0         0         0         0         0         0         0
         0         0         0         0         0         0         0         0
         0         0         0         0         0         0         0         0
         0         0         0         0         0         0         0         0
         0         0         0         0         0         0         0         0
         0         0         0         0         0         0         0         0
         0         0         0         0         0         0         0         0
         0         0         0         0         0         0         0         0
         0         0         0         0         0         0         0         0
         0         0         0         0         0         0         0         0
         0         0         0         0         0         0         0         0
         0         0         0         0         0         0         0         0
         0         0         0         0         0         0         0         0
         0         0         0         0         0         0         0         0
         0         0         0         0         0         0         0         0
         0         0         0         0         0         0         0         0
         0         0         0         0         0         0         0         0
         0         0         0         0         0         0         0         0
         0         0         0         0         0         0         0         0
         0         0         0         0         0         0         0         0
         0         0         0         0         0         0         0         0
         0         0         0         0         0         0         0         0
         0         0         0         0         0         0         0         0
         0         0         0         0         0         0         0         0
         0         0         0         0         0         0         0         0
         0         0         0         0         0         0         0         0
         0         0         0         0         0         0         0         0
         0         0         0         0         0         0         0         0
         0         0         0         0         0         0         0         0
         0         0         0         0         0         0         0         0
         0         0         0         0         0         0         0         0
         0         0         0         0         0         0         0         0
         0         0         0         0         0         0         0         0
         0         0         0         0         0         0         0         0
         0         0         0         0         0         0         0         0
         0         0         0         0         0         0         0         0
         0         0         0         0         0         0         0         0
         0         0         0         0         0         0         0         0
         0         0         0         0         0         0         0         0
         0         0         0         0         0         0         0         0
         0         0         0         0         0         0         0         0
         0         0         0         0         0         0         0         0
         0         0         0         0         0         0         0         0
         0         0         0         0         0         0         0         0
         0         0         0         0         0         0         0         0
         0         0         0         0         0         0         0         0
         0         0         0         0         0         0         0         0
         0         0         0         0         0         0         0         0
         0         0         0         0         0         0         0         0
         0         0         0         0         0         0         0         0
         0         0         0         0         0         0         0         0
         0         0         0         0         0         0         0         0
         0         0         0         0         0         0         0         0
         0         0         0         0         0         0         0         0
         0         0         0         0         0         0         0         0
         0         0         0         0         0         0         0         0
         0         0         0         0         0         0         0         0
         0         0         0         0         0         0         0         0
         0         0         0         0         0         0         0         0
         0         0         0         0         0         0         0         0
         0         0         0         0         0         0         0         0
         0         0         0         0         0         0         0         0
         0         0         0         0         0         0         0         0
         0         0         0         0         0         0         0         0
         0         0         0         0         0         0         0         0
         0         0         0         0         0         0         0         0
         0         0         0         0         0         0         0         0
         0         0         0         0         0         0         0         0
         0         0         0         0         0         0         0         0
         0         0         0         0         0         0         0         0
         0         0         0         0         0         0         0         0
         0         0         0         0         0         0         0         0
         0         0         0         0         0         0         0         0
         0         0         0         0         0         0         0         0
         0         0         0         0         0         0         0         0
         0         0         0         0         0         0         0         0
         0         0         0         0         0         0         0         0
         0         0         0         0         0         0         0         0
         0         0         0         0         0         0         0         0
         0         0         0         0         0         0         0         0
         0         0         0         0         0         0         0         0
         0         0         0         0         0         0         0         0
         0         0         0         0         0         0         0         0
         0         0         0         0         0         0         0         0
         0         0         0         0         0         0         0         0
         0         0         0         0         0         0         0         0
         0         0         0         0         0         0         0         0
         0         0         0         0         0         0         0         0
         0         0         0         0         0         0         0         0
         0         0         0         0         0         0         0         0
         0         0         0         0         0         0         0         0
         0         0         0         0         0         0         0         0
         0         0         0         0         0         0         0         0
         0         0         0         0         0         0         0         0
         0         0         0         0         0         0         0         0
         0         0         0         0         0         0         0         0
         0         0         0         0         0         0         0         0
         0         0         0         0         0         0         0         0
         0         0         0         0         0         0         0         0
         0         0         0         0         0         0         0         0
         0         0         0         0         0         0         0         0
         0         0         0         0         0         0         0         0
         0         0         0         0         0         0         0         0
         0         0         0         0         0         0         0         0
         0         0         0         0         0         0         0         0
         0         0         0         0         0         0         0         0
         0         0         0         0         0         0         0         0
         0         0         0         0         0         0         0         0
         0         0         0         0         0         0         0         0
         0         0         0         0         0         0         0         0
         0         0         0         0         0         0         0         0
         0         0         0         0         0         0         0         0
         0         0         0         0         0         0         0         0
         0         0         0         0         0         0         0         0
         0         0         0         0         0         0         0         0
         0         0         0         0         0         0         0         0
         0         0         0         0         0         0         0         0
         0         0         0         0         0         0         0         0
         0         0         0         0         0         0         0         0
         0         0         0         0         0         0         0         0
         0         0         0         0         0         0         0         0
         0         0         0         0         0         0         0         0
         0         0         0         0         0         0         0         0
         0         0         0         0         0         0         0         0
         0         0         0         0         0         0         0         0
         0         0         0         0         0         0         0         0
         0         0         0         0         0         0         0         0
         0         0         0         0         0         0         0         0
         0         0         0         0         0         0         0         0
         0         0         0         0         0         0         0         0
         0         0         0         0         0         0         0         0
         0         0         0         0         0         0         0         0
         0         0         0         0         0         0         0         0
         0         0         0         0         0         0         0         0
         0         0         0         0         0         0         0         0
         0         0         0         0         0         0         0         0
         0         0         0         0         0         0         0         0
         0         0         0         0         0         0         0         0
         0         0         0         0         0         0         0         0
         0         0         0         0         0         0         0         0
         0         0         0         0         0         0         0         0
         0         0         0         0         0         0         0         0
         0         0         0         0         0         0         0         0
         0         0         0         0         0         0         0         0
         0         0         0         0         0         0         0         0
         0         0         0         0         0         0         0         0
         0         0         0         0         0         0         0         0
         0         0         0         0         0         0         0         0
         0         0         0         0         0         0         0         0
         0         0         0         0         0         0         0         0
         0         0         0         0         0         0         0         0
         0         0         0         0         0         0         0         0
         0         0         0         0         0         0         0         0
         0         0         0         0         0         0         0         0
         0         0         0         0         0         0         0         0
         0         0         0         0         0         0         0         0
         0         0         0         0         0         0         0         0
         0         0         0         0         0         0         0         0
         0         0         0         0         0         0         0         0
         0         0         0         0         0         0         0         0
         0         0         0         0         0         0         0         0
         0         0         0         0         0         0         0         0
         0         0         0         0         0         0         0         0
         0         0         0         0         0         0         0         0
         0         0         0         0         0         0         0         0
         0         0         0         0         0         0         0         0
         0         0         0         0         0         0         0         0
         0         0         0         0         0         0         0         0
         0         0         0         0         0         0         0         0
         0         0         0         0         0         0         0         0
         0         0         0         0         0         0         0         0
         0         0         0         0         0         0         0         0
         0         0         0         0         0         0         0         0
         0         0         0         0         0         0         0         0
         0         0         0         0         0         0         0         0
         0         0         0         0         0         0         0         0
         0         0         0         0         0         0         0         0
         0         0         0         0         0         0         0         0
         0         0         0         0         0         0         0         0
         0         0         0         0         0         0         0         0
         0         0         0         0         0         0         0         0
         0         0         0         0         0         0         0         0
         0         0         0         0         0         0         0         0
         0         0         0         0         0         0         0         0
         0         0         0         0         0         0         0         0
         0         0         0         0         0         0         0         0
         0         0         0         0         0         0         0         0
         0         0         0         0         0         0         0         0
         0         0         0         0         0         0         0         0
         0         0         0         0         0         0         0         0
         0         0         0         0         0         0         0         0
         0         0         0         0         0         0         0         0
         0         0         0         0         0         0         0         0
         0         0         0         0         0         0         0         0
         0         0         0         0         0         0         0         0
         0         0         0         0         0         0         0         0
         0         0         0         0         0         0         0         0
         0         0         0         0         0         0         0         0
         0         0         0         0         0         0         0         0
         0         0         0         0         0         0         0         0
         0         0         0         0         0         0         0         0
         0         0         0         0         0         0         0         0
         0         0         0         0         0         0         0         0
         0         0         0         0         0         0         0         0
         0         0         0         0         0         0         0         0
         0         0         0         0         0         0         0         0
         0         0         0         0         0         0         0         0
         0         0         0         0         0         0         0         0
         0         0         0         0         0         0         0         0
         0         0         0         0         0         0         0         0
         0         0         0         0         0         0         0         0
         0         0         0         0         0         0         0         0
         0         0         0         0         0         0         0         0
         0         0         0         0         0         0         0         0
         0         0         0         0         0         0         0         0
         0         0         0         0         0         0         0         0
         0         0         0         0         0         0         0         0
         0         0         0         0         0         0         0         0
         0         0         0         0         0         0         0         0
         0         0         0         0         0         0         0         0
         0         0         0         0         0         0         0         0
         0         0         0         0         0         0         0         0
         0         0         0         0         0         0         0         0
         0         0         0         0         0         0         0         0
         0         0         0         0         0         0         0         0
         0         0         0         0         0         0         0         0
         0         0         0         0         0         0         0         0
         0         0         0         0         0         0         0         0
         0         0         0         0         0         0         0         0
         0         0         0         0         0         0         0         0
         0         0         0         0         0         0         0         0
         0         0         0         0         0         0         0         0
         0         0         0         0         0         0         0         0
         0         0         0         0         0         0         0         0
         0         0         0         0         0         0         0         0
         0         0         0         0         0         0         0         0
         0         0         0         0         0         0         0         0
         0         0         0         0         0         0         0         0
         0         0         0         0         0         0         0         0
         0         0         0         0         0         0         0         0
         0         0         0         0         0         0         0         0
         0         0         0         0         0         0         0         0
         0         0         0         0         0         0         0         0
         0         0         0         0         0         0         0         0
         0         0         0         0         0         0         0         0
         0         0         0         0         0         0         0         0
         0         0         0         0         0         0         0         0
         0         0         0         0         0         0         0         0
         0         0         0         0         0         0         0         0
         0         0         0         0         0         0         0         0
         0         0         0         0         0         0         0         0
         0         0         0         0         0         0         0         0
         0         0         0         0         0         0         0         0
         0         0         0         0         0         0         0         0
         0         0         0         0         0         0         0         0
         0         0         0         0         0         0         0         0
         0         0         0         0         0         0         0         0
         0         0         0         0         0         0         0         0
         0         0         0         0         0         0         0         0
         0         0         0         0         0         0         0         0
         0         0         0         0         0         0         0         0
         0         0         0         0         0         0         0         0
         0         0         0         0         0         0         0         0
         0         0         0         0         0         0         0         0
         0         0         0         0         0         0         0         0
         0         0         0         0         0         0         0         0
         0         0         0         0         0         0         0         0
         0         0         0         0         0         0         0         0
         0         0         0         0         0         0         0         0
         0         0         0         0         0         0         0         0
         0         0         0         0         0         0         0         0
         0         0         0         0         0         0         0         0
         0         0         0         0         0         0         0         0
         0         0         0         0         0         0         0         0
         0         0         0         0         0         0         0         0
         0         0         0         0         0         0         0         0
         0         0         0         0         0         0         0         0
         0         0         0         0         0         0         0         0
         0         0         0         0         0         0         0         0
         0         0         0         0         0         0         0         0
         0         0         0         0         0         0         0         0
         0         0         0         0         0         0         0         0
         0         0         0         0         0         0         0         0
         0         0         0         0         0         0         0         0
         0         0         0         0         0         0         0         0
         0         0         0         0         0         0         0         0
         0         0         0         0         0         0         0         0
         0         0         0         0         0         0         0         0
         0         0         0         0         0         0         0         0
         0         0         0         0         0         0         0         0
         0         0         0         0         0         0         0         0
         0         0         0         0         0         0         0         0
         0         0         0         0         0         0         0         0
         0         0         0         0         0         0         0         0
         0         0         0         0         0         0         0         0
         0         0         0         0         0         0         0         0
         0         0         0         0         0         0         0         0
         0         0         0         0         0         0         0         0
         0         0         0         0         0         0         0         0
         0         0         0         0         0         0         0         0
         0         0         0         0         0         0         0         0
         0         0         0         0         0         0         0         0
         0         0         0         0         0         0         0         0
         0         0         0         0         0         0         0         0
         0         0         0         0         0         0         0         0
         0         0         0         0         0         0         0         0
         0         0         0         0         0         0         0         0
         0         0         0         0         0         0         0         0
         0         0         0         0         0         0         0         0
         0         0         0         0         0         0         0         0
         0         0         0         0         0         0         0         0
         0         0         0         0         0         0         0         0
         0         0         0         0         0         0         0         0
         0         0         0         0         0         0         0         0
         0         0         0         0         0         0         0         0
         0         0         0         0         0         0         0         0
         0         0         0         0         0         0         0         0
         0         0         0         0         0         0         0         0
         0         0         0         0         0         0         0         0
         0         0         0         0         0         0         0         0
         0         0         0         0         0         0         0         0
         0         0         0         0         0         0         0         0
         0         0         0         0         0         0         0         0
         0         0         0         0         0         0         0         0
         0         0         0         0         0         0         0         0
         0         0         0         0         0         0         0         0
         0         0         0         0         0         0         0         0
         0         0         0         0         0         0         0         0
         0         0         0         0         0         0         0         0
         0         0         0         0         0         0         0         0
         0         0         0         0         0         0         0         0
         0         0         0         0         0         0         0         0
         0         0         0         0         0         0         0         0
         0         0         0         0         0         0         0         0
         0         0         0         0         0         0         0         0
         0         0         0         0         0         0         0         0
         0         0         0         0         0         0         0         0
         0         0         0         0         0         0         0         0
         0         0         0         0         0         0         0         0
         0         0         0         0         0         0         0         0
         0         0         0         0         0         0         0         0
         0         0         0         0         0         0         0         0
         0         0         0         0         0         0         0         0
         0         0         0         0         0         0         0         0
         0         0         0         0         0         0         0         0
         0         0         0         0         0         0         0         0
         0         0         0         0         0         0         0         0
         0         0         0         0         0         0         0         0
         0         0         0         0         0         0         0         0
         0         0         0         0         0         0         0         0
         0         0         0         0         0         0         0         0
         0         0         0         0         0         0         0         0
         0         0         0         0         0         0         0         0
         0         0         0         0         0         0         0         0
         0         0         0         0         0         0         0         0
         0         0         0         0         0         0         0         0
         0         0         0         0         0         0         0         0
         0         0         0         0         0         0         0         0
         0         0         0         0         0         0         0         0
         0         0         0         0         0         0         0         0
         0         0         0         0         0         0         0         0
         0         0         0         0         0         0         0         0
         0         0         0         0         0         0         0         0
         0         0         0         0         0         0         0         0
         0         0         0         0         0         0         0         0
         0         0         0         0         0         0         0         0
         0         0         0         0         0         0         0         0
         0         0         0         0         0         0         0         0
         0         0         0         0         0         0         0         0
         0         0         0         0         0         0         0         0
         0         0         0         0         0         0         0         0
         0         0         0         0         0         0         0         0
         0         0         0         0         0         0         0         0
         0         0         0         0         0         0         0         0
         0         0         0         0         0         0         0         0
         0         0         0         0         0         0         0         0
         0         0         0         0         0         0         0         0
         0         0         0         0         0         0         0         0
         0         0         0         0         0         0         0         0
         0         0         0         0         0         0         0         0
         0         0         0         0         0         0         0         0
         0         0         0         0         0         0         0         0
         0         0         0         0         0         0         0         0
         0         0         0         0         0         0         0         0
         0         0         0         0         0         0         0         0
         0         0         0         0         0         0         0         0
         0         0         0         0         0         0         0         0
         0         0         0         0         0         0         0         0
         0         0         0         0         0         0         0         0
         0         0         0         0         0         0         0         0
         0         0         0         0         0         0         0         0
         0         0         0         0         0         0         0         0
         0         0         0         0         0         0         0         0
         0         0         0         0         0         0         0         0
         0         0         0         0         0         0         0         0
         0         0         0         0         0         0         0         0
         0         0         0         0         0         0         0         0
         0         0         0         0         0         0         0         0
         0         0         0         0         0         0         0         0
         0         0         0         0         0         0         0         0
         0         0         0         0         0         0         0         0
         0         0         0         0         0         0         0         0
         0         0         0         0         0         0         0         0
         0         0         0         0         0         0         0         0
         0         0         0         0         0         0         0         0
         0         0         0         0         0         0         0         0
         0         0         0         0         0         0         0         0
         0         0         0         0         0         0         0         0
         0         0         0         0         0         0         0         0
         0         0         0         0         0         0         0         0
         0         0         0         0         0         0         0         0
         0         0         0         0         0         0         0         0
         0         0         0         0         0         0         0         0
         0         0         0         0         0         0         0         0
         0         0         0         0         0         0         0         0
         0         0         0         0         0         0         0         0
         0         0         0         0         0         0         0         0
         0         0         0         0         0         0         0         0
         0         0         0         0         0         0         0         0
         0         0         0         0         0         0         0         0
         0         0         0         0         0         0         0         0
         0         0         0         0         0         0         0         0
         0         0         0         0         0         0         0         0
         0         0         0         0         0         0         0         0
         0         0         0         0         0         0         0         0
         0         0         0         0         0         0         0         0
         0         0         0         0         0         0         0         0
         0         0         0         0         0         0         0         0
         0         0         0         0         0         0         0         0
         0         0         0         0         0         0         0         0
         0         0         0         0         0         0         0         0
         0         0         0         0         0         0         0         0
         0         0         0         0         0         0         0         0
         0         0         0         0         0         0         0         0
         0         0         0         0         0         0         0         0
         0         0         0         0         0         0         0         0
         0         0         0         0         0         0         0         0
         0         0         0         0         0         0         0         0
         0         0         0         0         0         0         0         0
         0         0         0         0         0         0         0         0
         0         0         0         0         0         0         0         0
         0         0         0         0         0         0         0         0
         0         0         0         0         0         0         0         0
         0         0         0         0         0         0         0         0
         0         0         0         0         0         0         0         0
         0         0         0         0         0         0         0         0
         0         0         0         0         0         0         0         0
         0         0         0         0         0         0         0         0
         0         0         0         0         0         0         0         0
         0         0         0         0         0         0         0         0
         0         0         0         0         0         0         0         0
         0         0         0         0         0         0         0         0
         0         0         0         0         0         0         0         0
         0         0         0         0         0         0         0         0
         0         0         0         0         0         0         0         0
         0         0         0         0         0         0         0         0
         0         0         0         0         0         0         0         0
         0         0         0         0         0         0         0         0
         0         0         0         0         0         0         0         0
         0         0         0         0         0         0         0         0
         0         0         0         0         0         0         0         0
         0         0         0         0         0         0         0         0
         0         0         0         0         0         0         0         0
         0         0         0         0         0         0         0         0
         0         0         0         0         0         0         0         0
         0         0         0         0         0         0         0         0
         0         0         0         0         0         0         0         0
         0         0         0         0         0         0         0         0
         0         0         0         0         0         0         0         0
         0         0         0         0         0         0         0         0
         0         0         0         0         0         0         0         0
         0         0         0         0         0         0         0         0
         0         0         0         0         0         0         0         0
         0         0         0         0         0         0         0         0
         0         0         0         0         0         0         0         0
         0         0         0         0         0         0         0         0
         0         0         0         0         0         0         0         0
         0         0         0         0         0         0         0         0
         0         0         0         0         0         0         0         0
         0         0         0         0         0         0         0         0
         0         0         0         0         0         0         0         0
         0         0         0         0         0         0         0         0
         0         0         0         0         0         0         0         0
         0         0         0         0         0         0         0         0
         0         0         0         0         0         0         0         0
         0         0         0         0         0         0         0         0
         0         0         0         0         0         0         0         0
         0         0         0         0         0         0         0         0
         0         0         0         0         0         0         0         0
         0         0         0         0         0         0         0         0
         0         0         0         0         0         0         0         0
         0         0         0         0         0         0         0         0
         0         0         0         0         0         0         0         0
         0         0         0         0         0         0         0         0
         0         0         0         0         0         0         0         0
         0         0         0         0         0         0         0         0
         0         0         0         0         0         0         0         0
         0         0         0         0         0         0         0         0
         0         0         0         0         0         0         0         0
         0         0         0         0         0         0         0         0
         0         0         0         0         0         0         0         0
         0         0         0         0         0         0         0         0
         0         0         0         0         0         0         0         0
         0         0         0         0         0         0         0         0
         0         0         0         0         0         0         0         0
         0         0         0         0         0         0         0         0
         0         0         0         0         0         0         0         0
         0         0         0         0         0         0         0         0
         0         0         0         0         0         0         0         0
         0         0         0         0         0         0         0         0
         0         0         0         0         0         0         0         0
         0         0         0         0         0         0         0         0
         0         0         0         0         0         0         0         0
         0         0         0         0         0         0         0         0
         0         0         0         0         0         0         0         0
         0         0         0         0         0         0         0         0
         0         0         0         0         0         0         0         0
         0         0         0         0         0         0         0         0
         0         0         0         0         0         0         0         0
         0         0         0         0         0         0         0         0
         0         0         0         0         0         0         0         0
         0         0         0         0         0         0         0         0
         0         0         0         0         0         0         0         0
         0         0         0         0         0         0         0         0
         0         0         0         0         0         0         0         0
         0         0         0         0         0         0         0         0
         0         0         0         0         0         0         0         0
         0         0         0         0         0         0         0         0
         0         0         0         0         0         0         0         0
         0         0         0         0         0         0         0         0
         0         0         0         0         0         0         0         0
         0         0         0         0         0         0         0         0
         0         0         0         0         0         0         0         0
         0         0         0         0         0         0         0         0
         0         0         0         0         0         0         0         0
         0         0         0         0         0         0         0         0
         0         0         0         0         0         0         0         0
         0         0         0         0         0         0         0         0
         0         0         0         0         0         0         0         0
         0         0         0         0         0         0         0         0
         0         0         0         0         0         0         0         0
         0         0         0         0         0         0         0         0
         0         0         0         0         0         0         0         0
         0         0         0         0         0         0         0         0
         0         0         0         0         0         0         0         0
         0         0         0         0         0         0         0         0
         0         0         0         0         0         0         0         0
         0         0         0         0         0         0         0         0
         0         0         0         0         0         0         0         0
         0         0         0         0         0         0         0         0
         0         0         0         0         0         0         0         0
         0         0         0         0         0         0         0         0
         0         0         0         0         0         0         0         0
         0         0         0         0         0         0         0         0
         0         0         0         0         0         0         0         0
         0         0         0         0         0         0         0         0
         0         0         0         0         0         0         0         0
         0         0         0         0         0         0         0         0
         0         0         0         0         0         0         0         0
         0         0         0         0         0         0         0         0
         0         0         0         0         0         0         0         0
         0         0         0         0         0         0         0         0
         0         0         0         0         0         0         0         0
         0         0         0         0         0         0         0         0
         0         0         0         0         0         0         0         0
         0         0         0         0         0         0         0         0
         0         0         0         0         0         0         0         0
         0         0         0         0         0         0         0         0
         0         0         0         0         0         0         0         0
         0         0         0         0         0         0         0         0
         0         0         0         0         0         0         0         0
         0         0         0         0         0         0         0         0
         0         0         0         0         0         0         0         0
         0         0         0         0         0         0         0         0
         0         0         0         0         0         0         0         0
         0         0         0         0         0         0         0         0
         0         0         0         0         0         0         0         0
         0         0         0         0         0         0         0         0
         0         0         0         0         0         0         0         0
         0         0         0         0         0         0         0         0
         0         0         0         0         0         0         0         0
         0         0         0         0         0         0         0         0
         0         0         0         0         0         0         0         0
         0         0         0         0         0         0         0         0
         0         0         0         0         0         0         0         0
         0         0         0         0         0         0         0         0
         0         0         0         0         0         0         0         0
         0         0         0         0         0         0         0         0
         0         0         0         0         0         0         0         0
         0         0         0         0         0         0         0         0
         0         0         0         0         0         0         0         0
         0         0         0         0         0         0         0         0
         0         0         0         0         0         0         0         0
         0         0         0         0         0         0         0         0
         0         0         0         0         0         0         0         0
         0         0         0         0         0         0         0         0
         0         0         0         0         0         0         0         0
         0         0         0         0         0         0         0         0
         0         0         0         0         0         0         0         0
         0         0         0         0         0         0         0         0
         0         0         0         0         0         0         0         0
         0         0         0         0         0         0         0         0
         0         0         0         0         0         0         0         0
         0         0         0         0         0         0         0         0
         0         0         0         0         0         0         0         0
         0         0         0         0         0         0         0         0
         0         0         0         0         0         0         0         0
         0         0         0         0         0         0         0         0
         0         0         0         0         0         0         0         0
         0         0         0         0         0         0         0         0
         0         0         0         0         0         0         0         0
         0         0         0         0         0         0         0         0
         0         0         0         0         0         0         0         0
         0         0         0         0         0         0         0         0
         0         0         0         0         0         0         0         0
         0         0         0         0         0         0         0         0
         0         0         0         0         0         0         0         0
         0         0         0         0         0         0         0         0
         0         0         0         0         0         0         0         0
         0         0         0         0         0         0         0         0
         0         0         0         0         0         0         0         0
         0         0         0         0         0         0         0         0
         0         0         0         0         0         0         0         0
         0         0         0         0         0         0         0         0
         0         0         0         0         0         0         0         0
         0         0         0         0         0         0         0         0
         0         0         0         0         0         0         0         0
         0         0         0         0         0         0         0         0
         0         0         0         0         0         0         0         0
         0         0         0         0         0         0         0         0
         0         0         0         0         0         0         0         0
         0         0         0         0         0         0         0         0
         0         0         0         0         0         0         0         0
         0         0         0         0         0         0         0         0
         0         0         0         0         0         0         0         0
         0         0         0         0         0         0         0         0
         0         0         0         0         0         0         0         0
         0         0         0         0         0         0         0         0
         0         0         0         0         0         0         0         0
         0         0         0         0         0         0         0         0
         0         0         0         0         0         0         0         0
         0         0         0         0         0         0         0         0
         0         0         0         0         0         0         0         0
         0         0         0         0         0         0         0         0
         0         0         0         0         0         0         0         0
         0         0         0         0         0         0         0         0
         0         0         0         0         0         0         0         0
         0         0         0         0         0         0         0         0
         0         0         0         0         0         0         0         0
         0         0         0         0         0         0         0         0
         0         0         0         0         0         0         0         0
         0         0         0         0         0         0         0         0
         0         0         0         0         0         0         0         0
         0         0         0         0         0         0         0         0
         0         0         0         0         0         0         0         0
         0         0         0         0         0         0         0         0
         0         0         0         0         0         0         0         0
         0         0         0         0         0         0         0         0
         0         0         0         0         0         0         0         0
         0         0         0         0         0         0         0         0
         0         0         0         0         0         0         0         0
         0         0         0         0         0         0         0         0
         0         0         0         0         0         0         0         0
         0         0         0         0         0         0         0         0
         0         0         0         0         0         0         0         0
         0         0         0         0         0         0         0         0
         0         0         0         0         0         0         0         0
         0         0         0         0         0         0         0         0
         0         0         0         0         0         0         0         0
         0         0         0         0         0         0         0         0
         0         0         0         0         0         0         0         0
         0         0         0         0         0         0         0         0
         0         0         0         0         0         0         0         0
         0         0         0         0         0         0         0         0
         0         0         0         0         0         0         0         0
         0         0         0         0         0         0         0         0
         0         0         0         0         0         0         0         0
         0         0         0         0         0         0         0         0
         0         0         0         0         0         0         0         0
         0         0         0         0         0         0         0         0
         0         0         0         0         0         0         0         0
         0         0         0         0         0         0         0         0
         0         0         0         0         0         0         0         0
         0         0         0         0

      6774         0 !NGRP NST2
         0         2         0         7         2         0        18         1         0
        26         1         0        35         1         0        38         1         0
        41         1         0        44         1         0        47         1         0
        50         1         0        53         1         0        55         1         0
        58         1         0        60         1         0        63         1         0
        66         1         0        69         1         0        72         1         0
        75         1         0        79         1         0        82         1         0
        85         1         0        88         1         0        91         1         0
        94         1         0        97         1         0       100         1         0
       103         1         0       106         1         0       109         1         0
       112         1         0       115         1         0       118         1         0
       122         2         0       129         2         0       140         1         0
       148         1         0       157         1         0       160         1         0
       163         1         0       166         1         0       169         1         0
       172         1         0       175         1         0       177         1         0
       180         1         0       182         1         0       185         1         0
       188         1         0       191         1         0       194         1         0
       197         1         0       201         1         0       204         1         0
       207         1         0       210         1         0       213         1         0
       216         1         0       219         1         0       222         1         0
       225         1         0       228         1         0       231         1         0
       234         1         0       237         1         0       240         1         0
       244         2         0       251         2         0       262         1         0
       270         1         0       279         1         0       282         1         0
       285         1         0       288         1         0       291         1         0
       294         1         0       297         1         0       299         1         0
       301         1         0       304         1         0       307         1         0
       310         1         0       313         1         0       316         1         0
       320         1         0       323         1         0       326         1         0
       329         1         0       332         1         0       335         1         0
       338         1         0       340         1         0       342         1         0
       345         1         0       348         1         0       351         1         0
       354         1         0       357         1         0       360         1         0
       363         1         0       367         2         0       374         2         0
       385         1         0       393         1         0       402         1         0
       405         1         0       408         1         0       411         1         0
       414         1         0       417         1         0       420         1         0
       422         1         0       425         1         0       427         1         0
       430         1         0       433         1         0       436         1         0
       439         1         0       442         1         0       446         1         0
       449         1         0       452         1         0       455         1         0
       458         1         0       461         1         0       464         1         0
       467         1         0       470         1         0       473         1         0
       476         1         0       479         1         0       482         1         0
       485         1         0       489         1         0       494         1         0
       498         2         0       509         1         0       517         1         0
       526         1         0       529         1         0       532         1         0
       535         1         0       538         1         0       541         1         0
       544         1         0       546         1         0       548         1         0
       551         1         0       554         1         0       557         1         0
       560         1         0       563         1         0       567         1         0
       570         1         0       573         1         0       576         1         0
       579         1         0       582         1         0       585         1         0
       588         1         0       591         1         0       594         1         0
       597         1         0       600         1         0       603         1         0
       606         1         0       610         2         0       617         2         0
       628         1         0       636         1         0       645         1         0
       648         1         0       651         1         0       654         1         0
       657         1         0       660         1         0       663         1         0
       665         1         0       668         1         0       670         1         0
       673         1         0       676         1         0       679         1         0
       682         1         0       685         1         0       689         1         0
       692         1         0       695         1         0       698         1         0
       701         1         0       704         1         0       707         1         0
       710         1         0       713         1         0       716         1         0
       719         1         0       722         1         0       725         1         0
       728         1         0       732         2         0       739         2         0
       750         1         0       758         1         0       767         1         0
       770         1         0       773         1         0       776         1         0
       779         1         0       782         1         0       785         1         0
       787         1         0       790         1         0       792         1         0
       795         1         0       798         1         0       801         1         0
       804         1         0       807         1         0       811         1         0
       814         1         0       817         1         0       820         1         0
       823         1         0       826         1         0       829         1         0
       832         1         0       835         1         0       838         1         0
       841         1         0       844         1         0       847         1         0
       850         1         0       854         2         0       861         2         0
       872         1         0       880         1         0       889         1         0
       892         1         0       895         1         0       898         1         0
       901         1         0       904         1         0       907         1         0
       909         1         0       912         1         0       914         1         0
       917         1         0       920         1         0       923         1         0
       926         1         0       929         1         0       933         1         0
       936         1         0       939         1         0       942         1         0
       945         1         0       948         1         0       951         1         0
       954         1         0       957         1         0       960         1         0
       963         1         0       966         1         0       969         1         0
       972         1         0       976         2         0       983         2         0
       994         1         0      1002         1         0      1011         1         0
      1014         1         0      1017         1         0      1020         1         0
      1023         1         0      1026         1         0      1029         1         0
      1031         1         0      1033         1         0      1036         1         0
      1039         1         0      1042         1         0      1045         1         0
      1048         1         0      1051         1         0      1054         1         0
      1058         1         0      1061         1         0      1064         1         0
      1067         1         0      1070         1         0      1073         1         0
      1076         1         0      1079         1         0      1082         1         0
      1085         1         0      1088         1         0      1091         1         0
      1094         1         0      1097         1         0      1101         2         0
      1108         2         0      1119         1         0      1127         1         0
      1136         1         0      1139         1         0      1142         1         0
      1145         1         0      1148         1         0      1151         1         0
      1154         1         0      1156         1         0      1159         1         0
      1161         1         0      1164         1         0      1167         1         0
      1170         1         0      1173         1         0      1176         1         0
      1180         1         0      1183         1         0      1186         1         0
      1189         1         0      1192         1         0      1195         1         0
      1198         1         0      1201         1         0      1204         1         0
      1207         1         0      1210         1         0      1213         1         0
      1216         1         0      1219         1         0      1223         2         0
      1230         2         0      1241         1         0      1249         1         0
      1258         1         0      1261         1         0      1264         1         0
      1267         1         0      1270         1         0      1273         1         0
      1276         1         0      1278         1         0      1280         1         0
      1283         1         0      1286         1         0      1289         1         0
      1292         1         0      1295         1         0      1298         1         0
      1301         1         0      1305         1         0      1308         1         0
      1311         1         0      1314         1         0      1317         1         0
      1320         1         0      1323         1         0      1326         1         0
      1329         1         0      1332         1         0      1335         1         0
      1338         1         0      1341         1         0      1344         1         0
      1348         2         0      1355         2         0      1366         1         0
      1374         1         0      1383         1         0      1386         1         0
      1389         1         0      1392         1         0      1395         1         0
      1398         1         0      1401         1         0      1403         1         0
      1406         1         0      1408         1         0      1411         1         0
      1414         1         0      1417         1         0      1420         1         0
      1423         1         0      1427         1         0      1430         1         0
      1433         1         0      1436         1         0      1439         1         0
      1442         1         0      1445         1         0      1448         1         0
      1451         1         0      1454         1         0      1457         1         0
      1460         1         0      1463         1         0      1466         1         0
      1470         1         0      1475         1         0      1479         2         0
      1490         1         0      1498         1         0      1507         1         0
      1510         1         0      1513         1         0      1516         1         0
      1519         1         0      1522         1         0      1525         1         0
      1527         1         0      1530         1         0      1532         1         0
      1535         1         0      1538         1         0      1541         1         0
      1544         1         0      1547         1         0      1551         1         0
      1554         1         0      1557         1         0      1560         1         0
      1563         1         0      1566         1         0      1569         1         0
      1572         1         0      1575         1         0      1578         1         0
      1581         1         0      1584         1         0      1587         1         0
      1590         1         0      1594         2         0      1601         2         0
      1612         1         0      1620         1         0      1629         1         0
      1632         1         0      1635         1         0      1638         1         0
      1641         1         0      1644         1         0      1647         1         0
      1649         1         0      1652         1         0      1654         1         0
      1657         1         0      1660         1         0      1663         1         0
      1666         1         0      1669         1         0      1673         1         0
      1676         1         0      1679         1         0      1682         1         0
      1685         1         0      1688         1         0      1691         1         0
      1694         1         0      1697         1         0      1700         1         0
      1703         1         0      1706         1         0      1709         1         0
      1712         1         0      1716         2         0      1723         2         0
      1734         1         0      1742         1         0      1751         1         0
      1754         1         0      1757         1         0      1760         1         0
      1763         1         0      1766         1         0      1769         1         0
      1771         1         0      1774         1         0      1776         1         0
      1779         1         0      1782         1         0      1785         1         0
      1788         1         0      1791         1         0      1795         1         0
      1798         1         0      1801         1         0      1804         1         0
      1807         1         0      1810         1         0      1813         1         0
      1816         1         0      1819         1         0      1822         1         0
      1825         1         0      1828         1         0      1831         1         0
      1834         1         0      1838         2         0      1845         2         0
      1856         1         0      1864         1         0      1873         1         0
      1876         1         0      1879         1         0      1882         1         0
      1885         1         0      1888         1         0      1891         1         0
      1893         1         0      1896         1         0      1898         1         0
      1901         1         0      1904         1         0      1907         1         0
      1910         1         0      1913         1         0      1917         1         0
      1920         1         0      1923         1         0      1926         1         0
      1929         1         0      1932         1         0      1935         1         0
      1938         1         0      1941         1         0      1944         1         0
      1947         1         0      1950         1         0      1953         1         0
      1956         1         0      1960         2         0      1967         2         0
      1978         1         0      1986         1         0      1995         1         0
      1998         1         0      2001         1         0      2004         1         0
      2007         1         0      2010         1         0      2013         1         0
      2015         1         0      2018         1         0      2020         1         0
      2023         1         0      2026         1         0      2029         1         0
      2032         1         0      2035         1         0      2039         1         0
      2042         1         0      2045         1         0      2048         1         0
      2051         1         0      2054         1         0      2057         1         0
      2060         1         0      2063         1         0      2066         1         0
      2069         1         0      2072         1         0      2075         1         0
      2078         1         0      2082         1         0      2087         1         0
      2091         2         0      2102         1         0      2110         1         0
      2119         1         0      2122         1         0      2125         1         0
      2128         1         0      2131         1         0      2134         1         0
      2137         1         0      2139         1         0      2141         1         0
      2144         1         0      2147         1         0      2150         1         0
      2153         1         0      2156         1         0      2160         1         0
      2163         1         0      2166         1         0      2169         1         0
      2172         1         0      2175         1         0      2178         1         0
      2181         1         0      2184         1         0      2187         1         0
      2190         1         0      2193         1         0      2196         1         0
      2199         1         0      2203         2         0      2210         2         0
      2221         1         0      2229         1         0      2238         1         0
      2241         1         0      2244         1         0      2247         1         0
      2250         1         0      2253         1         0      2256         1         0
      2258         1         0      2261         1         0      2263         1         0
      2266         1         0      2269         1         0      2272         1         0
      2275         1         0      2278         1         0      2282         1         0
      2285         1         0      2288         1         0      2291         1         0
      2294         1         0      2297         1         0      2300         1         0
      2303         1         0      2306         1         0      2309         1         0
      2312         1         0      2315         1         0      2318         1         0
      2321         1         0      2325         2         0      2332         2         0
      2343         1         0      2351         1         0      2360         1         0
      2363         1         0      2366         1         0      2369         1         0
      2372         1         0      2375         1         0      2378         1         0
      2380         1         0      2382         1         0      2385         1         0
      2388         1         0      2391         1         0      2394         1         0
      2397         1         0      2400         1         0      2403         1         0
      2407         1         0      2410         1         0      2413         1         0
      2416         1         0      2419         1         0      2422         1         0
      2425         1         0      2428         1         0      2431         1         0
      2434         1         0      2437         1         0      2440         1         0
      2443         1         0      2446         1         0      2450         2         0
      2457         2         0      2468         1         0      2476         1         0
      2485         1         0      2488         1         0      2491         1         0
      2494         1         0      2497         1         0      2500         1         0
      2503         1         0      2505         1         0      2508         1         0
      2510         1         0      2513         1         0      2516         1         0
      2519         1         0      2522         1         0      2525         1         0
      2529         1         0      2532         1         0      2535         1         0
      2538         1         0      2541         1         0      2544         1         0
      2547         1         0      2550         1         0      2553         1         0
      2556         1         0      2559         1         0      2562         1         0
      2565         1         0      2568         1         0      2572         2         0
      2579         2         0      2590         1         0      2598         1         0
      2607         1         0      2610         1         0      2613         1         0
      2616         1         0      2619         1         0      2622         1         0
      2625         1         0      2627         1         0      2630         1         0
      2632         1         0      2635         1         0      2638         1         0
      2641         1         0      2644         1         0      2647         1         0
      2651         1         0      2654         1         0      2657         1         0
      2660         1         0      2663         1         0      2666         1         0
      2669         1         0      2672         1         0      2675         1         0
      2678         1         0      2681         1         0      2684         1         0
      2687         1         0      2691         2         0      2698         2         0
      2709         1         0      2717         1         0      2726         1         0
      2729         1         0      2732         1         0      2735         1         0
      2738         1         0      2741         1         0      2744         1         0
      2746         1         0      2749         1         0      2751         1         0
      2754         1         0      2757         1         0      2760         1         0
      2763         1         0      2766         1         0      2770         1         0
      2773         1         0      2776         1         0      2779         1         0
      2782         1         0      2785         1         0      2788         1         0
      2791         1         0      2794         1         0      2797         1         0
      2800         1         0      2803         1         0      2806         1         0
      2810         1         0      2815         1         0      2819         2         0
      2830         1         0      2838         1         0      2847         1         0
      2850         1         0      2853         1         0      2856         1         0
      2859         1         0      2862         1         0      2865         1         0
      2867         1         0      2869         1         0      2872         1         0
      2875         1         0      2878         1         0      2881         1         0
      2884         1         0      2888         1         0      2891         1         0
      2894         1         0      2897         1         0      2900         1         0
      2903         1         0      2906         1         0      2909         1         0
      2912         1         0      2915         1         0      2918         1         0
      2921         1         0      2924         1         0      2927         1         0
      2931         2         0      2938         2         0      2949         1         0
      2957         1         0      2966         1         0      2969         1         0
      2972         1         0      2975         1         0      2978         1         0
      2981         1         0      2984         1         0      2986         1         0
      2989         1         0      2991         1         0      2994         1         0
      2997         1         0      3000         1         0      3003         1         0
      3006         1         0      3010         1         0      3013         1         0
      3016         1         0      3019         1         0      3022         1         0
      3025         1         0      3028         1         0      3031         1         0
      3034         1         0      3037         1         0      3040         1         0
      3043         1         0      3046         1         0      3049         1         0
      3053         1         0      3058         1         0      3062         2         0
      3073         1         0      3081         1         0      3090         1         0
      3093         1         0      3096         1         0      3099         1         0
      3102         1         0      3105         1         0      3108         1         0
      3110         1         0      3113         1         0      3115         1         0
      3118         1         0      3121         1         0      3124         1         0
      3127         1         0      3130         1         0      3134         1         0
      3137         1         0      3140         1         0      3143         1         0
      3146         1         0      3149         1         0      3152         1         0
      3155         1         0      3158         1         0      3161         1         0
      3164         1         0      3167         1         0      3170         1         0
      3173         1         0      3177         1         0      3182         1         0
      3186         2         0      3197         1         0      3205         1         0
      3214         1         0      3217         1         0      3220         1         0
      3223         1         0      3226         1         0      3229         1         0
      3232         1         0      3234         1         0      3237         1         0
      3239         1         0      3242         1         0      3245         1         0
      3248         1         0      3251         1         0      3254         1         0
      3258         1         0      3261         1         0      3264         1         0
      3267         1         0      3270         1         0      3273         1         0
      3276         1         0      3279         1         0      3282         1         0
      3285         1         0      3288         1         0      3291         1         0
      3294         1         0      3297         1         0      3301         1         0
      3306         1         0      3310         2         0      3321         1         0
      3329         1         0      3338         1         0      3341         1         0
      3344         1         0      3347         1         0      3350         1         0
      3353         1         0      3356         1         0      3358         1         0
      3360         1         0      3363         1         0      3366         1         0
      3369         1         0      3372         1         0      3375         1         0
      3379         1         0      3382         1         0      3385         1         0
      3388         1         0      3391         1         0      3394         1         0
      3397         1         0      3400         1         0      3403         1         0
      3406         1         0      3409         1         0      3412         1         0
      3415         1         0      3418         1         0      3422         2         0
      3429         2         0      3440         1         0      3448         1         0
      3457         1         0      3460         1         0      3463         1         0
      3466         1         0      3469         1         0      3472         1         0
      3475         1         0      3477         1         0      3480         1         0
      3482         1         0      3485         1         0      3488         1         0
      3491         1         0      3494         1         0      3497         1         0
      3501         1         0      3504         1         0      3507         1         0
      3510         1         0      3513         1         0      3516         1         0
      3519         1         0      3522         1         0      3525         1         0
      3528         1         0      3531         1         0      3534         1         0
      3537         1         0      3540         1         0      3544         2         0
      3551         2         0      3562         1         0      3570         1         0
      3579         1         0      3582         1         0      3585         1         0
      3588         1         0      3591         1         0      3594         1         0
      3597         1         0      3599         1         0      3601         1         0
      3604         1         0      3607         1         0      3610         1         0
      3613         1         0      3616         1         0      3619         1         0
      3622         1         0      3626         1         0      3629         1         0
      3632         1         0      3635         1         0      3638         1         0
      3641         1         0      3644         1         0      3647         1         0
      3650         1         0      3653         1         0      3656         1         0
      3659         1         0      3662         1         0      3665         1         0
      3669         2         0      3676         2         0      3687         1         0
      3695         1         0      3704         1         0      3707         1         0
      3710         1         0      3713         1         0      3716         1         0
      3719         1         0      3722         1         0      3724         1         0
      3726         1         0      3729         1         0      3732         1         0
      3735         1         0      3738         1         0      3741         1         0
      3744         1         0      3747         1         0      3751         1         0
      3754         1         0      3757         1         0      3760         1         0
      3763         1         0      3766         1         0      3769         1         0
      3772         1         0      3775         1         0      3778         1         0
      3781         1         0      3784         1         0      3787         1         0
      3790         1         0      3794         1         0      3799         1         0
      3803         2         0      3814         1         0      3822         1         0
      3831         1         0      3834         1         0      3837         1         0
      3840         1         0      3843         1         0      3846         1         0
      3849         1         0      3851         1         0      3853         1         0
      3856         1         0      3859         1         0      3862         1         0
      3865         1         0      3868         1         0      3872         1         0
      3875         1         0      3878         1         0      3881         1         0
      3884         1         0      3887         1         0      3890         1         0
      3893         1         0      3896         1         0      3899         1         0
      3902         1         0      3905         1         0      3908         1         0
      3911         1         0      3915         2         0      3922         2         0
      3933         1         0      3941         1         0      3950         1         0
      3953         1         0      3956         1         0      3959         1         0
      3962         1         0      3965         1         0      3968         1         0
      3970         1         0      3973         1         0      3975         1         0
      3978         1         0      3981         1         0      3984         1         0
      3987         1         0      3990         1         0      3994         1         0
      3997         1         0      4000         1         0      4003         1         0
      4006         1         0      4009         1         0      4012         1         0
      4015         1         0      4018         1         0      4021         1         0
      4024         1         0      4027         1         0      4030         1         0
      4033         1         0      4037         1         0      4042         1         0
      4046         2         0      4057         1         0      4065         1         0
      4074         1         0      4077         1         0      4080         1         0
      4083         1         0      4086         1         0      4089         1         0
      4092         1         0      4094         1         0      4096         1         0
      4099         1         0      4102         1         0      4105         1         0
      4108         1         0      4111         1         0      4115         1         0
      4118         1         0      4121         1         0      4124         1         0
      4127         1         0      4130         1         0      4133         1         0
      4136         1         0      4139         1         0      4142         1         0
      4145         1         0      4148         1         0      4151         1         0
      4154         1         0      4158         2         0      4165         2         0
      4176         1         0      4184         1         0      4193         1         0
      4196         1         0      4199         1         0      4202         1         0
      4205         1         0      4208         1         0      4211         1         0
      4213         1         0      4216         1         0      4218         1         0
      4221         1         0      4224         1         0      4227         1         0
      4230         1         0      4233         1         0      4237         1         0
      4240         1         0      4243         1         0      4246         1         0
      4249         1         0      4252         1         0      4255         1         0
      4258         1         0      4261         1         0      4264         1         0
      4267         1         0      4270         1         0      4273         1         0
      4276         1         0      4280         2         0      4287         2         0
      4298         1         0      4306         1         0      4315         1         0
      4318         1         0      4321         1         0      4324         1         0
      4327         1         0      4330         1         0      4333         1         0
      4335         1         0      4337         1         0      4340         1         0
      4343         1         0      4346         1         0      4349         1         0
      4352         1         0      4356         1         0      4359         1         0
      4362         1         0      4365         1         0      4368         1         0
      4371         1         0      4374         1         0      4376         1         0
      4378         1         0      4381         1         0      4384         1         0
      4387         1         0      4390         1         0      4393         1         0
      4396         1         0      4399         1         0      4403         2         0
      4410         2         0      4421         1         0      4429         1         0
      4438         1         0      4441         1         0      4444         1         0
      4447         1         0      4450         1         0      4453         1         0
      4456         1         0      4458         1         0      4461         1         0
      4463         1         0      4466         1         0      4469         1         0
      4472         1         0      4475         1         0      4478         1         0
      4482         1         0      4485         1         0      4488         1         0
      4491         1         0      4494         1         0      4497         1         0
      4500         1         0      4503         1         0      4506         1         0
      4509         1         0      4512         1         0      4515         1         0
      4518         1         0      4521         1         0      4525         2         0
      4532         2         0      4543         1         0      4551         1         0
      4560         1         0      4563         1         0      4566         1         0
      4569         1         0      4572         1         0      4575         1         0
      4578         1         0      4580         1         0      4582         1         0
      4585         1         0      4588         1         0      4591         1         0
      4594         1         0      4597         1         0      4601         1         0
      4604         1         0      4607         1         0      4610         1         0
      4613         1         0      4616         1         0      4619         1         0
      4621         1         0      4623         1         0      4626         1         0
      4629         1         0      4632         1         0      4635         1         0
      4638         1         0      4641         1         0      4644         1         0
      4648         2         0      4655         2         0      4666         1         0
      4674         1         0      4683         1         0      4686         1         0
      4689         1         0      4692         1         0      4695         1         0
      4698         1         0      4701         1         0      4703         1         0
      4706         1         0      4708         1         0      4711         1         0
      4714         1         0      4717         1         0      4720         1         0
      4723         1         0      4727         1         0      4730         1         0
      4733         1         0      4736         1         0      4739         1         0
      4742         1         0      4745         1         0      4748         1         0
      4751         1         0      4754         1         0      4757         1         0
      4760         1         0      4763         1         0      4766         1         0
      4770         2         0      4777         2         0      4788         1         0
      4796         1         0      4805         1         0      4808         1         0
      4811         1         0      4814         1         0      4817         1         0
      4820         1         0      4823         1         0      4825         1         0
      4828         1         0      4830         1         0      4833         1         0
      4836         1         0      4839         1         0      4842         1         0
      4845         1         0      4849         1         0      4852         1         0
      4855         1         0      4858         1         0      4861         1         0
      4864         1         0      4867         1         0      4870         1         0
      4873         1         0      4876         1         0      4879         1         0
      4882         1         0      4885         1         0      4888         1         0
      4892         2         0      4899         2         0      4910         1         0
      4918         1         0      4927         1         0      4930         1         0
      4933         1         0      4936         1         0      4939         1         0
      4942         1         0      4945         1         0      4947         1         0
      4950         1         0      4952         1         0      4955         1         0
      4958         1         0      4961         1         0      4964         1         0
      4967         1         0      4971         1         0      4974         1         0
      4977         1         0      4980         1         0      4983         1         0
      4986         1         0      4989         1         0      4992         1         0
      4995         1         0      4998         1         0      5001         1         0
      5004         1         0      5007         1         0      5010         1         0
      5014         2         0      5025         1         0      5029         2         0
      5040         1         0      5048         1         0      5057         1         0
      5065         1         0      5074         1         0      5077         1         0
      5080         1         0      5083         1         0      5086         1         0
      5089         1         0      5092         1         0      5095         1         0
      5098         1         0      5100         1         0      5102         1         0
      5105         1         0      5108         1         0      5111         1         0
      5114         1         0      5117         1         0      5121         1         0
      5124         1         0      5127         1         0      5130         1         0
      5133         1         0      5136         1         0      5139         1         0
      5142         1         0      5145         1         0      5148         1         0
      5151         1         0      5154         1         0      5157         1         0
      5160         1         0      5164         1         0      5167         1         0
      5170         1         0      5173         1         0      5176         1         0
      5179         1         0      5182         1         0      5185         1         0
      5188         1         0      5190         1         0      5192         1         0
      5195         1         0      5198         1         0      5201         1         0
      5204         1         0      5207         1         0      5211         1         0
      5214         1         0      5217         1         0      5220         1         0
      5223         1         0      5226         1         0      5229         1         0
      5232         1         0      5235         1         0      5238         1         0
      5241         1         0      5244         1         0      5247         1         0
      5250         1         0      5254         2         0      5261         2         0
      5272         1         0      5280         1         0      5289         1         0
      5292         1         0      5295         1         0      5298         1         0
      5301         1         0      5304         1         0      5307         1         0
      5309         1         0      5312         1         0      5314         1         0
      5317         1         0      5320         1         0      5323         1         0
      5326         1         0      5329         1         0      5333         1         0
      5336         1         0      5339         1         0      5342         1         0
      5345         1         0      5348         1         0      5351         1         0
      5354         1         0      5357         1         0      5360         1         0
      5363         1         0      5366         1         0      5369         1         0
      5372         1         0      5376         2         0      5383         2         0
      5394         1         0      5402         1         0      5411         1         0
      5414         1         0      5417         1         0      5420         1         0
      5423         1         0      5426         1         0      5429         1         0
      5431         1         0      5434         1         0      5436         1         0
      5439         1         0      5442         1         0      5445         1         0
      5448         1         0      5451         1         0      5455         1         0
      5458         1         0      5461         1         0      5464         1         0
      5467         1         0      5470         1         0      5473         1         0
      5476         1         0      5479         1         0      5482         1         0
      5485         1         0      5488         1         0      5491         1         0
      5494         1         0      5498         2         0      5505         2         0
      5516         1         0      5524         1         0      5533         1         0
      5536         1         0      5539         1         0      5542         1         0
      5545         1         0      5548         1         0      5551         1         0
      5553         1         0      5556         1         0      5558         1         0
      5561         1         0      5564         1         0      5567         1         0
      5570         1         0      5573         1         0      5577         1         0
      5580         1         0      5583         1         0      5586         1         0
      5589         1         0      5592         1         0      5595         1         0
      5598         1         0      5601         1         0      5604         1         0
      5607         1         0      5610         1         0      5613         1         0
      5616         1         0      5620         2         0      5627         2         0
      5638         1         0      5646         1         0      5655         1         0
      5658         1         0      5661         1         0      5664         1         0
      5667         1         0      5670         1         0      5673         1         0
      5675         1         0      5677         1         0      5680         1         0
      5683         1         0      5686         1         0      5689         1         0
      5692         1         0      5695         1         0      5698         1         0
      5702         1         0      5705         1         0      5708         1         0
      5711         1         0      5714         1         0      5717         1         0
      5720         1         0      5723         1         0      5726         1         0
      5729         1         0      5732         1         0      5735         1         0
      5738         1         0      5741         1         0      5745         2         0
      5752         2         0      5763         1         0      5771         1         0
      5780         1         0      5783         1         0      5786         1         0
      5789         1         0      5792         1         0      5795         1         0
      5798         1         0      5800         1         0      5803         1         0
      5805         1         0      5808         1         0      5811         1         0
      5814         1         0      5817         1         0      5820         1         0
      5824         1         0      5827         1         0      5830         1         0
      5833         1         0      5836         1         0      5839         1         0
      5842         1         0      5845         1         0      5848         1         0
      5851         1         0      5854         1         0      5857         1         0
      5860         1         0      5864         2         0      5871         2         0
      5882         1         0      5890         1         0      5899         1         0
      5902         1         0      5905         1         0      5908         1         0
      5911         1         0      5914         1         0      5917         1         0
      5919         1         0      5922         1         0      5924         1         0
      5927         1         0      5930         1         0      5933         1         0
      5936         1         0      5939         1         0      5943         1         0
      5946         1         0      5949         1         0      5952         1         0
      5955         1         0      5958         1         0      5961         1         0
      5964         1         0      5967         1         0      5970         1         0
      5973         1         0      5976         1         0      5979         1         0
      5982         1         0      5986         2         0      5993         2         0
      6004         1         0      6012         1         0      6021         1         0
      6024         1         0      6027         1         0      6030         1         0
      6033         1         0      6036         1         0      6039         1         0
      6041         1         0      6044         1         0      6046         1         0
      6049         1         0      6052         1         0      6055         1         0
      6058         1         0      6061         1         0      6065         1         0
      6068         1         0      6071         1         0      6074         1         0
      6077         1         0      6080         1         0      6083         1         0
      6086         1         0      6089         1         0      6092         1         0
      6095         1         0      6098         1         0      6101         1         0
      6104         1         0      6108         2         0      6115         2         0
      6126         1         0      6134         1         0      6143         1         0
      6146         1         0      6149         1         0      6152         1         0
      6155         1         0      6158         1         0      6161         1         0
      6163         1         0      6165         1         0      6168         1         0
      6171         1         0      6174         1         0      6177         1         0
      6180         1         0      6183         1         0      6186         1         0
      6190         1         0      6193         1         0      6196         1         0
      6199         1         0      6202         1         0      6205         1         0
      6208         1         0      6211         1         0      6214         1         0
      6217         1         0      6220         1         0      6223         1         0
      6226         1         0      6229         1         0      6233         2         0
      6240         2         0      6251         1         0      6259         1         0
      6268         1         0      6271         1         0      6274         1         0
      6277         1         0      6280         1         0      6283         1         0
      6286         1         0      6288         1         0      6291         1         0
      6293         1         0      6296         1         0      6299         1         0
      6302         1         0      6305         1         0      6308         1         0
      6312         1         0      6315         1         0      6318         1         0
      6321         1         0      6324         1         0      6327         1         0
      6330         1         0      6333         1         0      6336         1         0
      6339         1         0      6342         1         0      6345         1         0
      6348         1         0      6352         2         0      6359         2         0
      6370         1         0      6378         1         0      6387         1         0
      6390         1         0      6393         1         0      6396         1         0
      6399         1         0      6402         1         0      6405         1         0
      6407         1         0      6410         1         0      6412         1         0
      6415         1         0      6418         1         0      6421         1         0
      6424         1         0      6427         1         0      6431         1         0
      6434         1         0      6437         1         0      6440         1         0
      6443         1         0      6446         1         0      6449         1         0
      6452         1         0      6455         1         0      6458         1         0
      6461         1         0      6464         1         0      6467         1         0
      6470         1         0      6474         2         0      6481         2         0
      6492         1         0      6500         1         0      6509         1         0
      6512         1         0      6515         1         0      6518         1         0
      6521         1         0      6524         1         0      6527         1         0
      6529         1         0      6532         1         0      6534         1         0
      6537         1         0      6540         1         0      6543         1         0
      6546         1         0      6549         1         0      6553         1         0
      6556         1         0      6559         1         0      6562         1         0
      6565         1         0      6568         1         0      6571         1         0
      6574         1         0      6577         1         0      6580         1         0
      6583         1         0      6586         1         0      6589         1         0
      6592         1         0      6596         1         0      6601         1         0
      6605         2         0      6616         1         0      6624         1         0
      6633         1         0      6636         1         0      6639         1         0
      6642         1         0      6645         1         0      6648         1         0
      6651         1         0      6653         1         0      6656         1         0
      6658         1         0      6661         1         0      6664         1         0
      6667         1         0      6670         1         0      6673         1         0
      6677         1         0      6680         1         0      6683         1         0
      6686         1         0      6689         1         0      6692         1         0
      6695         1         0      6698         1         0      6701         1         0
      6704         1         0      6707         1         0      6710         1         0
      6713         1         0      6716         1         0      6720         1         0
      6725         1         0      6729         2         0      6740         1         0
      6748         1         0      6757         1         0      6760         1         0
      6763         1         0      6766         1         0      6769         1         0
      6772         1         0      6775         1         0      6777         1         0
      6779         1         0      6782         1         0      6785         1         0
      6788         1         0      6791         1         0      6794         1         0
      6798         1         0      6801         1         0      6804         1         0
      6807         1         0      6810         1         0      6813         1         0
      6816         1         0      6819         1         0      6822         1         0
      6825         1         0      6828         1         0      6831         1         0
      6834         1         0      6837         1         0      6841         2         0
      6848         2         0      6859         1         0      6867         1         0
      6876         1         0      6879         1         0      6882         1         0
      6885         1         0      6888         1         0      6891         1         0
      6894         1         0      6896         1         0      6899         1         0
      6901         1         0      6904         1         0      6907         1         0
      6910         1         0      6913         1         0      6916         1         0
      6920         1         0      6923         1         0      6926         1         0
      6929         1         0      6932         1         0      6935         1         0
      6938         1         0      6941         1         0      6944         1         0
      6947         1         0      6950         1         0      6953         1         0
      6956         1         0      6959         1         0      6963         2         0
      6970         2         0      6981         1         0      6989         1         0
      6998         1         0      7001         1         0      7004         1         0
      7007         1         0      7010         1         0      7013         1         0
      7016         1         0      7018         1         0      7021         1         0
      7023         1         0      7026         1         0      7029         1         0
      7032         1         0      7035         1         0      7038         1         0
      7042         1         0      7045         1         0      7048         1         0
      7051         1         0      7054         1         0      7057         1         0
      7060         1         0      7063         1         0      7066         1         0
      7069         1         0      7072         1         0      7075         1         0
      7078         1         0      7082         2         0      7089         2         0
      7100         1         0      7108         1         0      7117         1         0
      7120         1         0      7123         1         0      7126         1         0
      7129         1         0      7132         1         0      7135         1         0
      7137         1         0      7140         1         0      7142         1         0
      7145         1         0      7148         1         0      7151         1         0
      7154         1         0      7157         1         0      7161         1         0
      7164         1         0      7167         1         0      7170         1         0
      7173         1         0      7176         1         0      7179         1         0
      7182         1         0      7185         1         0      7188         1         0
      7191         1         0      7194         1         0      7197         1         0
      7201         2         0      7208         2         0      7219         1         0
      7227         1         0      7236         1         0      7239         1         0
      7242         1         0      7245         1         0      7248         1         0
      7251         1         0      7254         1         0      7256         1         0
      7259         1         0      7261         1         0      7264         1         0
      7267         1         0      7270         1         0      7273         1         0
      7276         1         0      7280         1         0      7283         1         0
      7286         1         0      7289         1         0      7292         1         0
      7295         1         0      7298         1         0      7301         1         0
      7304         1         0      7307         1         0      7310         1         0
      7313         1         0      7316         1         0      7320         2         0
      7327         2         0      7338         1         0      7346         1         0
      7355         1         0      7358         1         0      7361         1         0
      7364         1         0      7367         1         0      7370         1         0
      7373         1         0      7375         1         0      7377         1         0
      7380         1         0      7383         1         0      7386         1         0
      7389         1         0      7392         1         0      7395         1         0
      7398         1         0      7402         1         0      7405         1         0
      7408         1         0      7411         1         0      7414         1         0
      7417         1         0      7420         1         0      7423         1         0
      7426         1         0      7429         1         0      7432         1         0
      7435         1         0      7438         1         0      7441         1         0
      7445         2         0      7452         2         0      7463         1         0
      7471         1         0      7480         1         0      7483         1         0
      7486         1         0      7489         1         0      7492         1         0
      7495         1         0      7498         1         0      7500         1         0
      7503         1         0      7505         1         0      7508         1         0
      7511         1         0      7514         1         0      7517         1         0
      7520         1         0      7524         1         0      7527         1         0
      7530         1         0      7533         1         0      7536         1         0
      7539         1         0      7542         1         0      7545         1         0
      7548         1         0      7551         1         0      7554         1         0
      7557         1         0      7560         1         0      7563         1         0
      7567         2         0      7574         2         0      7585         1         0
      7593         1         0      7602         1         0      7605         1         0
      7608         1         0      7611         1         0      7614         1         0
      7617         1         0      7620         1         0      7622         1         0
      7624         1         0      7627         1         0      7630         1         0
      7633         1         0      7636         1         0      7639         1         0
      7643         1         0      7646         1         0      7649         1         0
      7652         1         0      7655         1         0      7658         1         0
      7661         1         0      7663         1         0      7665         1         0
      7668         1         0      7671         1         0      7674         1         0
      7677         1         0      7680         1         0      7683         1         0
      7686         1         0      7690         1         0      7695         1         0
      7699         2         0      7710         1         0      7718         1         0
      7727         1         0      7730         1         0      7733         1         0
      7736         1         0      7739         1         0      7742         1         0
      7745         1         0      7747         1         0      7750         1         0
      7752         1         0      7755         1         0      7758         1         0
      7761         1         0      7764         1         0      7767         1         0
      7771         1         0      7774         1         0      7777         1         0
      7780         1         0      7783         1         0      7786         1         0
      7789         1         0      7792         1         0      7795         1         0
      7798         1         0      7801         1         0      7804         1         0
      7807         1         0      7810         1         0      7814         1         0
      7819         1         0      7823         2         0      7834         1         0
      7842         1         0      7851         1         0      7854         1         0
      7857         1         0      7860         1         0      7863         1         0
      7866         1         0      7869         1         0      7871         1         0
      7874         1         0      7876         1         0      7879         1         0
      7882         1         0      7885         1         0      7888         1         0
      7891         1         0      7895         1         0      7898         1         0
      7901         1         0      7904         1         0      7907         1         0
      7910         1         0      7913         1         0      7916         1         0
      7919         1         0      7922         1         0      7925         1         0
      7928         1         0      7931         1         0      7934         1         0
      7938         2         0      7945         2         0      7956         1         0
      7964         1         0      7973         1         0      7976         1         0
      7979         1         0      7982         1         0      7985         1         0
      7988         1         0      7991         1         0      7993         1         0
      7996         1         0      7998         1         0      8001         1         0
      8004         1         0      8007         1         0      8010         1         0
      8013         1         0      8017         1         0      8020         1         0
      8023         1         0      8026         1         0      8029         1         0
      8032         1         0      8035         1         0      8038         1         0
      8041         1         0      8044         1         0      8047         1         0
      8050         1         0      8053         1         0      8057         2         0
      8064         2         0      8075         1         0      8083         1         0
      8092         1         0      8095         1         0      8098         1         0
      8101         1         0      8104         1         0      8107         1         0
      8110         1         0      8112         1         0      8114         1         0
      8117         1         0      8120         1         0      8123         1         0
      8126         1         0      8129         1         0      8133         1         0
      8136         1         0      8139         1         0      8142         1         0
      8145         1         0      8148         1         0      8151         1         0
      8153         1         0      8155         1         0      8158         1         0
      8161         1         0      8164         1         0      8167         1         0
      8170         1         0      8173         1         0      8176         1         0
      8180         2         0      8187         2         0      8198         1         0
      8206         1         0      8215         1         0      8218         1         0
      8221         1         0      8224         1         0      8227         1         0
      8230         1         0      8233         1         0      8235         1         0
      8238         1         0      8240         1         0      8243         1         0
      8246         1         0      8249         1         0      8252         1         0
      8255         1         0      8259         1         0      8262         1         0
      8265         1         0      8268         1         0      8271         1         0
      8274         1         0      8277         1         0      8280         1         0
      8283         1         0      8286         1         0      8289         1         0
      8292         1         0      8295         1         0      8298         1         0
      8302         2         0      8309         2         0      8320         1         0
      8328         1         0      8337         1         0      8340         1         0
      8343         1         0      8346         1         0      8349         1         0
      8352         1         0      8355         1         0      8357         1         0
      8359         1         0      8362         1         0      8365         1         0
      8368         1         0      8371         1         0      8374         1         0
      8377         1         0      8380         1         0      8384         1         0
      8387         1         0      8390         1         0      8393         1         0
      8396         1         0      8399         1         0      8402         1         0
      8405         1         0      8408         1         0      8411         1         0
      8414         1         0      8417         1         0      8420         1         0
      8423         1         0      8427         2         0      8434         2         0
      8445         1         0      8453         1         0      8462         1         0
      8465         1         0      8468         1         0      8471         1         0
      8474         1         0      8477         1         0      8480         1         0
      8482         1         0      8485         1         0      8487         1         0
      8490         1         0      8493         1         0      8496         1         0
      8499         1         0      8502         1         0      8506         1         0
      8509         1         0      8512         1         0      8515         1         0
      8518         1         0      8521         1         0      8524         1         0
      8527         1         0      8530         1         0      8533         1         0
      8536         1         0      8539         1         0      8542         1         0
      8545         1         0      8549         1         0      8554         1         0
      8558         2         0      8569         1         0      8577         1         0
      8586         1         0      8589         1         0      8592         1         0
      8595         1         0      8598         1         0      8601         1         0
      8604         1         0      8606         1         0      8609         1         0
      8611         1         0      8614         1         0      8617         1         0
      8620         1         0      8623         1         0      8626         1         0
      8630         1         0      8633         1         0      8636         1         0
      8639         1         0      8642         1         0      8645         1         0
      8648         1         0      8651         1         0      8654         1         0
      8657         1         0      8660         1         0      8663         1         0
      8666         1         0      8669         1         0      8673         2         0
      8680         2         0      8691         1         0      8699         1         0
      8708         1         0      8711         1         0      8714         1         0
      8717         1         0      8720         1         0      8723         1         0
      8726         1         0      8728         1         0      8730         1         0
      8733         1         0      8736         1         0      8739         1         0
      8742         1         0      8745         1         0      8749         1         0
      8752         1         0      8755         1         0      8758         1         0
      8761         1         0      8764         1         0      8767         1         0
      8769         1         0      8771         1         0      8774         1         0
      8777         1         0      8780         1         0      8783         1         0
      8786         1         0      8789         1         0      8792         1         0
      8796         2         0      8803         2         0      8814         1         0
      8822         1         0      8831         1         0      8834         1         0
      8837         1         0      8840         1         0      8843         1         0
      8846         1         0      8849         1         0      8851         1         0
      8854         1         0      8856         1         0      8859         1         0
      8862         1         0      8865         1         0      8868         1         0
      8871         1         0      8875         1         0      8878         1         0
      8881         1         0      8884         1         0      8887         1         0
      8890         1         0      8893         1         0      8896         1         0
      8899         1         0      8902         1         0      8905         1         0
      8908         1         0      8911         1         0      8915         1         0
      8920         1         0      8924         2         0      8935         1         0
      8943         1         0      8952         1         0      8955         1         0
      8958         1         0      8961         1         0      8964         1         0
      8967         1         0      8970         1         0      8972         1         0
      8975         1         0      8977         1         0      8980         1         0
      8983         1         0      8986         1         0      8989         1         0
      8992         1         0      8996         1         0      8999         1         0
      9002         1         0      9005         1         0      9008         1         0
      9011         1         0      9014         1         0      9017         1         0
      9020         1         0      9023         1         0      9026         1         0
      9029         1         0      9032         1         0      9035         1         0
      9039         2         0      9046         2         0      9057         1         0
      9065         1         0      9074         1         0      9077         1         0
      9080         1         0      9083         1         0      9086         1         0
      9089         1         0      9092         1         0      9094         1         0
      9096         1         0      9099         1         0      9102         1         0
      9105         1         0      9108         1         0      9111         1         0
      9114         1         0      9117         1         0      9121         1         0
      9124         1         0      9127         1         0      9130         1         0
      9133         1         0      9136         1         0      9139         1         0
      9142         1         0      9145         1         0      9148         1         0
      9151         1         0      9154         1         0      9157         1         0
      9160         1         0      9164         2         0      9171         2         0
      9182         1         0      9190         1         0      9199         1         0
      9202         1         0      9205         1         0      9208         1         0
      9211         1         0      9214         1         0      9217         1         0
      9219         1         0      9222         1         0      9224         1         0
      9227         1         0      9230         1         0      9233         1         0
      9236         1         0      9239         1         0      9243         1         0
      9246         1         0      9249         1         0      9252         1         0
      9255         1         0      9258         1         0      9261         1         0
      9264         1         0      9267         1         0      9270         1         0
      9273         1         0      9276         1         0      9279         1         0
      9282         1         0      9286         1         0      9291         1         0
      9295         2         0      9306         1         0      9314         1         0
      9323         1         0      9326         1         0      9329         1         0
      9332         1         0      9335         1         0      9338         1         0
      9341         1         0      9343         1         0      9345         1         0
      9348         1         0      9351         1         0      9354         1         0
      9357         1         0      9360         1         0      9364         1         0
      9367         1         0      9370         1         0      9373         1         0
      9376         1         0      9379         1         0      9382         1         0
      9385         1         0      9388         1         0      9391         1         0
      9394         1         0      9397         1         0      9400         1         0
      9403         1         0      9407         2         0      9414         2         0
      9425         1         0      9433         1         0      9442         1         0
      9445         1         0      9448         1         0      9451         1         0
      9454         1         0      9457         1         0      9460         1         0
      9462         1         0      9464         1         0      9467         1         0
      9470         1         0      9473         1         0      9476         1         0
      9479         1         0      9483         1         0      9486         1         0
      9489         1         0      9492         1         0      9495         1         0
      9498         1         0      9501         1         0      9503         1         0
      9505         1         0      9508         1         0      9511         1         0
      9514         1         0      9517         1         0      9520         1         0
      9523         1         0      9526         1         0      9530         2         0
      9537         2         0      9548         1         0      9556         1         0
      9565         1         0      9568         1         0      9571         1         0
      9574         1         0      9577         1         0      9580         1         0
      9583         1         0      9585         1         0      9588         1         0
      9590         1         0      9593         1         0      9596         1         0
      9599         1         0      9602         1         0      9605         1         0
      9609         1         0      9612         1         0      9615         1         0
      9618         1         0      9621         1         0      9624         1         0
      9627         1         0      9630         1         0      9633         1         0
      9636         1         0      9639         1         0      9642         1         0
      9645         1         0      9648         1         0      9652         2         0
      9659         2         0      9670         1         0      9678         1         0
      9687         1         0      9690         1         0      9693         1         0
      9696         1         0      9699         1         0      9702         1         0
      9705         1         0      9707         1         0      9710         1         0
      9712         1         0      9715         1         0      9718         1         0
      9721         1         0      9724         1         0      9727         1         0
      9731         1         0      9734         1         0      9737         1         0
      9740         1         0      9743         1         0      9746         1         0
      9749         1         0      9752         1         0      9755         1         0
      9758         1         0      9761         1         0      9764         1         0
      9767         1         0      9770         1         0      9774         2         0
      9781         2         0      9792         1         0      9800         1         0
      9809         1         0      9812         1         0      9815         1         0
      9818         1         0      9821         1         0      9824         1         0
      9827         1         0      9829         1         0      9831         1         0
      9834         1         0      9837         1         0      9840         1         0
      9843         1         0      9846         1         0      9849         1         0
      9852         1         0      9856         1         0      9859         1         0
      9862         1         0      9865         1         0      9868         1         0
      9871         1         0      9874         1         0      9877         1         0
      9880         1         0      9883         1         0      9886         1         0
      9889         1         0      9892         1         0      9895         1         0
      9899         2         0      9906         2         0      9917         1         0
      9925         1         0      9934         1         0      9937         1         0
      9940         1         0      9943         1         0      9946         1         0
      9949         1         0      9952         1         0      9954         1         0
      9956         1         0      9959         1         0      9962         1         0
      9965         1         0      9968         1         0      9971         1         0
      9974         1         0      9977         1         0      9981         1         0
      9984         1         0      9987         1         0      9990         1         0
      9993         1         0      9996         1         0      9999         1         0
     10002         1         0     10005         1         0     10008         1         0
     10011         1         0     10014         1         0     10017         1         0
     10020         1         0     10024         2         0     10031         2         0
     10042         1         0     10050         1         0     10059         1         0
     10062         1         0     10065         1         0     10068         1         0
     10071         1         0     10074         1         0     10077         1         0
     10079         1         0     10082         1         0     10084         1         0
     10087         1         0     10090         1         0     10093         1         0
     10096         1         0     10099         1         0     10103         1         0
     10106         1         0     10109         1         0     10112         1         0
     10115         1         0     10118         1         0     10121         1         0
     10124         1         0     10127         1         0     10130         1         0
     10133         1         0     10136         1         0     10139         1         0
     10142         1         0     10146         2         0     10153         2         0
     10164         1         0     10172         1         0     10181         1         0
     10184         1         0     10187         1         0     10190         1         0
     10193         1         0     10196         1         0     10199         1         0
     10201         1         0     10204         1         0     10206         1         0
     10209         1         0     10212         1         0     10215         1         0
     10218         1         0     10221         1         0     10225         1         0
     10228         1         0     10231         1         0     10234         1         0
     10237         1         0     10240         1         0     10243         1         0
     10246         1         0     10249         1         0     10252         1         0
     10255         1         0     10258         1         0     10261         1         0
     10264         1         0     10268         2         0     10275         2         0
     10286         1         0     10294         1         0     10303         1         0
     10306         1         0     10309         1         0     10312         1         0
     10315         1         0     10318         1         0     10321         1         0
     10323         1         0     10325         1         0     10328         1         0
     10331         1         0     10334         1         0     10337         1         0
     10340         1         0     10344         1         0     10347         1         0
     10350         1         0     10353         1         0     10356         1         0
     10359         1         0     10362         1         0     10364         1         0
     10366         1         0     10369         1         0     10372         1         0
     10375         1         0     10378         1         0     10381         1         0
     10384         1         0     10387         1         0     10391         2         0
     10398         2         0     10409         1         0     10417         1         0
     10426         1         0     10429         1         0     10432         1         0
     10435         1         0     10438         1         0     10441         1         0
     10444         1         0     10446         1         0     10449         1         0
     10451         1         0     10454         1         0     10457         1         0
     10460         1         0     10463         1         0     10466         1         0
     10470         1         0     10473         1         0     10476         1         0
     10479         1         0     10482         1         0     10485         1         0
     10488         1         0     10491         1         0     10494         1         0
     10497         1         0     10500         1         0     10503         1         0
     10506         1         0     10509         1         0     10513         2         0
     10520         2         0     10531         1         0     10539         1         0
     10548         1         0     10551         1         0     10554         1         0
     10557         1         0     10560         1         0     10563         1         0
     10566         1         0     10568         1         0     10571         1         0
     10573         1         0     10576         1         0     10579         1         0
     10582         1         0     10585         1         0     10588         1         0
     10592         1         0     10595         1         0     10598         1         0
     10601         1         0     10604         1         0     10607         1         0
     10610         1         0     10613         1         0     10616         1         0
     10619         1         0     10622         1         0     10625         1         0
     10628         1         0     10632         1         0     10637         1         0
     10641         2         0     10652         1         0     10660         1         0
     10669         1         0     10672         1         0     10675         1         0
     10678         1         0     10681         1         0     10684         1         0
     10687         1         0     10689         1         0     10691         1         0
     10694         1         0     10697         1         0     10700         1         0
     10703         1         0     10706         1         0     10710         1         0
     10713         1         0     10716         1         0     10719         1         0
     10722         1         0     10725         1         0     10728         1         0
     10731         1         0     10734         1         0     10737         1         0
     10740         1         0     10743         1         0     10746         1         0
     10749         1         0     10753         2         0     10764         1         0
     10768         2         0     10779         1         0     10787         1         0
     10796         1         0     10804         1         0     10813         1         0
     10816         1         0     10819         1         0     10822         1         0
     10825         1         0     10828         1         0     10831         1         0
     10834         1         0     10837         1         0     10839         1         0
     10841         1         0     10844         1         0     10847         1         0
     10850         1         0     10853         1         0     10856         1         0
     10860         1         0     10863         1         0     10866         1         0
     10869         1         0     10872         1         0     10875         1         0
     10878         1         0     10881         1         0     10884         1         0
     10887         1         0     10890         1         0     10893         1         0
     10896         1         0     10899         1         0     10903         1         0
     10906         1         0     10909         1         0     10912         1         0
     10915         1         0     10918         1         0     10921         1         0
     10924         1         0     10927         1         0     10929         1         0
     10931         1         0     10934         1         0     10937         1         0
     10940         1         0     10943         1         0     10946         1         0
     10950         1         0     10953         1         0     10956         1         0
     10959         1         0     10962         1         0     10965         1         0
     10968         1         0     10971         1         0     10974         1         0
     10977         1         0     10980         1         0     10983         1         0
     10986         1         0     10989         1         0     10993         2         0
     11000         2         0     11011         1         0     11019         1         0
     11028         1         0     11031         1         0     11034         1         0
     11037         1         0     11040         1         0     11043         1         0
     11046         1         0     11048         1         0     11051         1         0
     11053         1         0     11056         1         0     11059         1         0
     11062         1         0     11065         1         0     11068         1         0
     11072         1         0     11075         1         0     11078         1         0
     11081         1         0     11084         1         0     11087         1         0
     11090         1         0     11093         1         0     11096         1         0
     11099         1         0     11102         1         0     11105         1         0
     11108         1         0     11112         2         0     11119         2         0
     11130         1         0     11138         1         0     11147         1         0
     11150         1         0     11153         1         0     11156         1         0
     11159         1         0     11162         1         0     11165         1         0
     11167         1         0     11170         1         0     11172         1         0
     11175         1         0     11178         1         0     11181         1         0
     11184         1         0     11187         1         0     11191         1         0
     11194         1         0     11197         1         0     11200         1         0
     11203         1         0     11206         1         0     11209         1         0
     11212         1         0     11215         1         0     11218         1         0
     11221         1         0     11224         1         0     11227         1         0
     11230         1         0     11234         2         0     11241         2         0
     11252         1         0     11260         1         0     11269         1         0
     11272         1         0     11275         1         0     11278         1         0
     11281         1         0     11284         1         0     11287         1         0
     11289         1         0     11292         1         0     11294         1         0
     11297         1         0     11300         1         0     11303         1         0
     11306         1         0     11309         1         0     11313         1         0
     11316         1         0     11319         1         0     11322         1         0
     11325         1         0     11328         1         0     11331         1         0
     11334         1         0     11337         1         0     11340         1         0
     11343         1         0     11346         1         0     11349         1         0
     11353         1         0     11358         1         0     11362         2         0
     11373         1         0     11381         1         0     11390         1         0
     11393         1         0     11396         1         0     11399         1         0
     11402         1         0     11405         1         0     11408         1         0
     11410         1         0     11413         1         0     11415         1         0
     11418         1         0     11421         1         0     11424         1         0
     11427         1         0     11430         1         0     11434         1         0
     11437         1         0     11440         1         0     11443         1         0
     11446         1         0     11449         1         0     11452         1         0
     11455         1         0     11458         1         0     11461         1         0
     11464         1         0     11467         1         0     11470         1         0
     11473         1         0     11477         2         0     11484         2         0
     11495         1         0     11503         1         0     11512         1         0
     11515         1         0     11518         1         0     11521         1         0
     11524         1         0     11527         1         0     11530         1         0
     11532         1         0     11535         1         0     11537         1         0
     11540         1         0     11543         1         0     11546         1         0
     11549         1         0     11552         1         0     11556         1         0
     11559         1         0     11562         1         0     11565         1         0
     11568         1         0     11571         1         0     11574         1         0
     11577         1         0     11580         1         0     11583         1         0
     11586         1         0     11589         1         0     11592         1         0
     11595         1         0     11599         2         0     11606         2         0
     11617         1         0     11625         1         0     11634         1         0
     11637         1         0     11640         1         0     11643         1         0
     11646         1         0     11649         1         0     11652         1         0
     11654         1         0     11657         1         0     11659         1         0
     11662         1         0     11665         1         0     11668         1         0
     11671         1         0     11674         1         0     11678         1         0
     11681         1         0     11684         1         0     11687         1         0
     11690         1         0     11693         1         0     11696         1         0
     11699         1         0     11702         1         0     11705         1         0
     11708         1         0     11711         1         0     11714         1         0
     11717         1         0     11721         2         0     11728         2         0
     11739         1         0     11747         1         0     11756         1         0
     11759         1         0     11762         1         0     11765         1         0
     11768         1         0     11771         1         0     11774         1         0
     11776         1         0     11779         1         0     11781         1         0
     11784         1         0     11787         1         0     11790         1         0
     11793         1         0     11796         1         0     11800         1         0
     11803         1         0     11806         1         0     11809         1         0
     11812         1         0     11815         1         0     11818         1         0
     11821         1         0     11824         1         0     11827         1         0
     11830         1         0     11833         1         0     11836         1         0
     11839         1         0     11843         2         0     11850         2         0
     11861         1         0     11869         1         0     11878         1         0
     11881         1         0     11884         1         0     11887         1         0
     11890         1         0     11893         1         0     11896         1         0
     11898         1         0     11900         1         0     11903         1         0
     11906         1         0     11909         1         0     11912         1         0
     11915         1         0     11918         1         0     11921         1         0
     11925         1         0     11928         1         0     11931         1         0
     11934         1         0     11937         1         0     11940         1         0
     11943         1         0     11946         1         0     11949         1         0
     11952         1         0     11955         1         0     11958         1         0
     11961         1         0     11964         1         0     11968         2         0
     11975         2         0     11986         1         0     11994         1         0
     12003         1         0     12006         1         0     12009         1         0
     12012         1         0     12015         1         0     12018         1         0
     12021         1         0     12023         1         0     12026         1         0
     12028         1         0     12031         1         0     12034         1         0
     12037         1         0     12040         1         0     12043         1         0
     12047         1         0     12050         1         0     12053         1         0
     12056         1         0     12059         1         0     12062         1         0
     12065         1         0     12068         1         0     12071         1         0
     12074         1         0     12077         1         0     12080         1         0
     12083         1         0     12086         1         0     12090         1         0
     12095         1         0     12099         2         0     12110         1         0
     12118         1         0     12127         1         0     12130         1         0
     12133         1         0     12136         1         0     12139         1         0
     12142         1         0     12145         1         0     12147         1         0
     12150         1         0     12152         1         0     12155         1         0
     12158         1         0     12161         1         0     12164         1         0
     12167         1         0     12171         1         0     12174         1         0
     12177         1         0     12180         1         0     12183         1         0
     12186         1         0     12189         1         0     12192         1         0
     12195         1         0     12198         1         0     12201         1         0
     12204         1         0     12207         1         0     12210         1         0
     12214         2         0     12221         2         0     12232         1         0
     12240         1         0     12249         1         0     12252         1         0
     12255         1         0     12258         1         0     12261         1         0
     12264         1         0     12267         1         0     12269         1         0
     12272         1         0     12274         1         0     12277         1         0
     12280         1         0     12283         1         0     12286         1         0
     12289         1         0     12293         1         0     12296         1         0
     12299         1         0     12302         1         0     12305         1         0
     12308         1         0     12311         1         0     12314         1         0
     12317         1         0     12320         1         0     12323         1         0
     12326         1         0     12329         1         0     12332         1         0
     12336         2         0     12343         2         0     12354         1         0
     12362         1         0     12371         1         0     12374         1         0
     12377         1         0     12380         1         0     12383         1         0
     12386         1         0     12389         1         0     12391         1         0
     12394         1         0     12396         1         0     12399         1         0
     12402         1         0     12405         1         0     12408         1         0
     12411         1         0     12415         1         0     12418         1         0
     12421         1         0     12424         1         0     12427         1         0
     12430         1         0     12433         1         0     12436         1         0
     12439         1         0     12442         1         0     12445         1         0
     12448         1         0     12451         1         0     12454         1         0
     12458         2         0     12465         2         0     12476         1         0
     12484         1         0     12493         1         0     12496         1         0
     12499         1         0     12502         1         0     12505         1         0
     12508         1         0     12511         1         0     12513         1         0
     12516         1         0     12518         1         0     12521         1         0
     12524         1         0     12527         1         0     12530         1         0
     12533         1         0     12537         1         0     12540         1         0
     12543         1         0     12546         1         0     12549         1         0
     12552         1         0     12555         1         0     12558         1         0
     12561         1         0     12564         1         0     12567         1         0
     12570         1         0     12573         1         0     12576         1         0
     12580         2         0     12587         2         0     12598         1         0
     12606         1         0     12615         1         0     12618         1         0
     12621         1         0     12624         1         0     12627         1         0
     12630         1         0     12633         1         0     12635         1         0
     12638         1         0     12640         1         0     12643         1         0
     12646         1         0     12649         1         0     12652         1         0
     12655         1         0     12659         1         0     12662         1         0
     12665         1         0     12668         1         0     12671         1         0
     12674         1         0     12677         1         0     12680         1         0
     12683         1         0     12686         1         0     12689         1         0
     12692         1         0     12695         1         0     12699         2         0
     12706         2         0     12717         1         0     12725         1         0
     12734         1         0     12737         1         0     12740         1         0
     12743         1         0     12746         1         0     12749         1         0
     12752         1         0     12754         1         0     12756         1         0
     12759         1         0     12762         1         0     12765         1         0
     12768         1         0     12771         1         0     12774         1         0
     12777         1         0     12781         1         0     12784         1         0
     12787         1         0     12790         1         0     12793         1         0
     12796         1         0     12799         1         0     12802         1         0
     12805         1         0     12808         1         0     12811         1         0
     12814         1         0     12817         1         0     12820         1         0
     12824         2         0     12831         2         0     12842         1         0
     12850         1         0     12859         1         0     12862         1         0
     12865         1         0     12868         1         0     12871         1         0
     12874         1         0     12877         1         0     12879         1         0
     12881         1         0     12884         1         0     12887         1         0
     12890         1         0     12893         1         0     12896         1         0
     12900         1         0     12903         1         0     12906         1         0
     12909         1         0     12912         1         0     12915         1         0
     12918         1         0     12920         1         0     12922         1         0
     12925         1         0     12928         1         0     12931         1         0
     12934         1         0     12937         1         0     12940         1         0
     12943         1         0     12947         1         0     12952         1         0
     12956         2         0     12967         1         0     12975         1         0
     12984         1         0     12987         1         0     12990         1         0
     12993         1         0     12996         1         0     12999         1         0
     13002         1         0     13004         1         0     13006         1         0
     13009         1         0     13012         1         0     13015         1         0
     13018         1         0     13021         1         0     13025         1         0
     13028         1         0     13031         1         0     13034         1         0
     13037         1         0     13040         1         0     13043         1         0
     13046         1         0     13049         1         0     13052         1         0
     13055         1         0     13058         1         0     13061         1         0
     13064         1         0     13068         1         0     13073         1         0
     13077         2         0     13088         1         0     13096         1         0
     13105         1         0     13108         1         0     13111         1         0
     13114         1         0     13117         1         0     13120         1         0
     13123         1         0     13125         1         0     13127         1         0
     13130         1         0     13133         1         0     13136         1         0
     13139         1         0     13142         1         0     13146         1         0
     13149         1         0     13152         1         0     13155         1         0
     13158         1         0     13161         1         0     13164         1         0
     13167         1         0     13170         1         0     13173         1         0
     13176         1         0     13179         1         0     13182         1         0
     13185         1         0     13189         2         0     13196         2         0
     13207         1         0     13215         1         0     13224         1         0
     13227         1         0     13230         1         0     13233         1         0
     13236         1         0     13239         1         0     13242         1         0
     13244         1         0     13246         1         0     13249         1         0
     13252         1         0     13255         1         0     13258         1         0
     13261         1         0     13264         1         0     13267         1         0
     13271         1         0     13274         1         0     13277         1         0
     13280         1         0     13283         1         0     13286         1         0
     13289         1         0     13292         1         0     13295         1         0
     13298         1         0     13301         1         0     13304         1         0
     13307         1         0     13310         1         0     13314         2         0
     13321         2         0     13332         1         0     13340         1         0
     13349         1         0     13352         1         0     13355         1         0
     13358         1         0     13361         1         0     13364         1         0
     13367         1         0     13369         1         0     13372         1         0
     13374         1         0     13377         1         0     13380         1         0
     13383         1         0     13386         1         0     13389         1         0
     13393         1         0     13396         1         0     13399         1         0
     13402         1         0     13405         1         0     13408         1         0
     13411         1         0     13414         1         0     13417         1         0
     13420         1         0     13423         1         0     13426         1         0
     13429         1         0     13432         1         0     13436         2         0
     13443         2         0     13454         1         0     13462         1         0
     13471         1         0     13474         1         0     13477         1         0
     13480         1         0     13483         1         0     13486         1         0
     13489         1         0     13491         1         0     13493         1         0
     13496         1         0     13499         1         0     13502         1         0
     13505         1         0     13508         1         0     13511         1         0
     13514         1         0     13518         1         0     13521         1         0
     13524         1         0     13527         1         0     13530         1         0
     13533         1         0     13536         1         0     13539         1         0
     13542         1         0     13545         1         0     13548         1         0
     13551         1         0     13554         1         0     13557         1         0
     13561         2         0     13568         2         0     13579         1         0
     13587         1         0     13596         1         0     13599         1         0
     13602         1         0     13605         1         0     13608         1         0
     13611         1         0     13614         1         0     13616         1         0
     13619         1         0     13621         1         0     13624         1         0
     13627         1         0     13630         1         0     13633         1         0
     13636         1         0     13640         1         0     13643         1         0
     13646         1         0     13649         1         0     13652         1         0
     13655         1         0     13658         1         0     13661         1         0
     13664         1         0     13667         1         0     13670         1         0
     13673         1         0     13676         1         0     13679         1         0
     13683         2         0     13690         2         0     13701         1         0
     13709         1         0     13718         1         0     13721         1         0
     13724         1         0     13727         1         0     13730         1         0
     13733         1         0     13736         1         0     13738         1         0
     13741         1         0     13743         1         0     13746         1         0
     13749         1         0     13752         1         0     13755         1         0
     13758         1         0     13762         1         0     13765         1         0
     13768         1         0     13771         1         0     13774         1         0
     13777         1         0     13780         1         0     13783         1         0
     13786         1         0     13789         1         0     13792         1         0
     13795         1         0     13798         1         0     13801         1         0
     13805         1         0     13810         1         0     13814         2         0
     13825         1         0     13833         1         0     13842         1         0
     13845         1         0     13848         1         0     13851         1         0
     13854         1         0     13857         1         0     13860         1         0
     13862         1         0     13864         1         0     13867         1         0
     13870         1         0     13873         1         0     13876         1         0
     13879         1         0     13883         1         0     13886         1         0
     13889         1         0     13892         1         0     13895         1         0
     13898         1         0     13901         1         0     13904         1         0
     13907         1         0     13910         1         0     13913         1         0
     13916         1         0     13919         1         0     13922         1         0
     13926         2         0     13933         2         0     13944         1         0
     13952         1         0     13961         1         0     13964         1         0
     13967         1         0     13970         1         0     13973         1         0
     13976         1         0     13979         1         0     13981         1         0
     13984         1         0     13986         1         0     13989         1         0
     13992         1         0     13995         1         0     13998         1         0
     14001         1         0     14005         1         0     14008         1         0
     14011         1         0     14014         1         0     14017         1         0
     14020         1         0     14023         1         0     14026         1         0
     14029         1         0     14032         1         0     14035         1         0
     14038         1         0     14041         1         0     14044         1         0
     14048         2         0     14055         2         0     14066         1         0
     14074         1         0     14083         1         0     14086         1         0
     14089         1         0     14092         1         0     14095         1         0
     14098         1         0     14101         1         0     14103         1         0
     14106         1         0     14108         1         0     14111         1         0
     14114         1         0     14117         1         0     14120         1         0
     14123         1         0     14127         1         0     14130         1         0
     14133         1         0     14136         1         0     14139         1         0
     14142         1         0     14145         1         0     14148         1         0
     14151         1         0     14154         1         0     14157         1         0
     14160         1         0     14163         1         0     14166         1         0
     14170         2         0     14177         2         0     14188         1         0
     14196         1         0     14205         1         0     14208         1         0
     14211         1         0     14214         1         0     14217         1         0
     14220         1         0     14223         1         0     14225         1         0
     14228         1         0     14230         1         0     14233         1         0
     14236         1         0     14239         1         0     14242         1         0
     14245         1         0     14249         1         0     14252         1         0
     14255         1         0     14258         1         0     14261         1         0
     14264         1         0     14267         1         0     14270         1         0
     14273         1         0     14276         1         0     14279         1         0
     14282         1         0     14285         1         0     14288         1         0
     14292         2         0     14303         1         0     14307         2         0
     14318         1         0     14326         1         0     14335         1         0
     14343         1         0     14352         1         0     14355         1         0
     14358         1         0     14361         1         0     14364         1         0
     14367         1         0     14370         1         0     14373         1         0
     14376         1         0     14378         1         0     14380         1         0
     14383         1         0     14386         1         0     14389         1         0
     14392         1         0     14395         1         0     14399         1         0
     14402         1         0     14405         1         0     14408         1         0
     14411         1         0     14414         1         0     14417         1         0
     14420         1         0     14423         1         0     14426         1         0
     14429         1         0     14432         1         0     14435         1         0
     14438         1         0     14442         1         0     14445         1         0
     14448         1         0     14451         1         0     14454         1         0
     14457         1         0     14460         1         0     14463         1         0
     14466         1         0     14468         1         0     14470         1         0
     14473         1         0     14476         1         0     14479         1         0
     14482         1         0     14485         1         0     14489         1         0
     14492         1         0     14495         1         0     14498         1         0
     14501         1         0     14504         1         0     14507         1         0
     14510         1         0     14513         1         0     14516         1         0
     14519         1         0     14522         1         0     14525         1         0
     14528         1         0     14532         2         0     14539         2         0
     14550         1         0     14558         1         0     14567         1         0
     14570         1         0     14573         1         0     14576         1         0
     14579         1         0     14582         1         0     14585         1         0
     14587         1         0     14590         1         0     14592         1         0
     14595         1         0     14598         1         0     14601         1         0
     14604         1         0     14607         1         0     14611         1         0
     14614         1         0     14617         1         0     14620         1         0
     14623         1         0     14626         1         0     14629         1         0
     14632         1         0     14635         1         0     14638         1         0
     14641         1         0     14644         1         0     14647         1         0
     14651         2         0     14658         2         0     14669         1         0
     14677         1         0     14686         1         0     14689         1         0
     14692         1         0     14695         1         0     14698         1         0
     14701         1         0     14704         1         0     14706         1         0
     14709         1         0     14711         1         0     14714         1         0
     14717         1         0     14720         1         0     14723         1         0
     14726         1         0     14730         1         0     14733         1         0
     14736         1         0     14739         1         0     14742         1         0
     14745         1         0     14748         1         0     14751         1         0
     14754         1         0     14757         1         0     14760         1         0
     14763         1         0     14766         1         0     14770         2         0
     14777         2         0     14788         1         0     14796         1         0
     14805         1         0     14808         1         0     14811         1         0
     14814         1         0     14817         1         0     14820         1         0
     14823         1         0     14825         1         0     14828         1         0
     14830         1         0     14833         1         0     14836         1         0
     14839         1         0     14842         1         0     14845         1         0
     14849         1         0     14852         1         0     14855         1         0
     14858         1         0     14861         1         0     14864         1         0
     14867         1         0     14870         1         0     14873         1         0
     14876         1         0     14879         1         0     14882         1         0
     14885         1         0     14888         1         0     14892         1         0
     14897         1         0     14901         2         0     14912         1         0
     14920         1         0     14929         1         0     14932         1         0
     14935         1         0     14938         1         0     14941         1         0
     14944         1         0     14947         1         0     14949         1         0
     14952         1         0     14954         1         0     14957         1         0
     14960         1         0     14963         1         0     14966         1         0
     14969         1         0     14973         1         0     14976         1         0
     14979         1         0     14982         1         0     14985         1         0
     14988         1         0     14991         1         0     14994         1         0
     14997         1         0     15000         1         0     15003         1         0
     15006         1         0     15009         1         0     15012         1         0
     15016         2         0     15023         2         0     15034         1         0
     15042         1         0     15051         1         0     15054         1         0
     15057         1         0     15060         1         0     15063         1         0
     15066         1         0     15069         1         0     15071         1         0
     15074         1         0     15076         1         0     15079         1         0
     15082         1         0     15085         1         0     15088         1         0
     15091         1         0     15095         1         0     15098         1         0
     15101         1         0     15104         1         0     15107         1         0
     15110         1         0     15113         1         0     15116         1         0
     15119         1         0     15122         1         0     15125         1         0
     15128         1         0     15131         1         0     15134         1         0
     15138         2         0     15145         2         0     15156         1         0
     15164         1         0     15173         1         0     15176         1         0
     15179         1         0     15182         1         0     15185         1         0
     15188         1         0     15191         1         0     15193         1         0
     15195         1         0     15198         1         0     15201         1         0
     15204         1         0     15207         1         0     15210         1         0
     15214         1         0     15217         1         0     15220         1         0
     15223         1         0     15226         1         0     15229         1         0
     15232         1         0     15234         1         0     15236         1         0
     15239         1         0     15242         1         0     15245         1         0
     15248         1         0     15251         1         0     15254         1         0
     15257         1         0     15261         2         0     15268         2         0
     15279         1         0     15287         1         0     15296         1         0
     15299         1         0     15302         1         0     15305         1         0
     15308         1         0     15311         1         0     15314         1         0
     15316         1         0     15318         1         0     15321         1         0
     15324         1         0     15327         1         0     15330         1         0
     15333         1         0     15336         1         0     15339         1         0
     15343         1         0     15346         1         0     15349         1         0
     15352         1         0     15355         1         0     15358         1         0
     15361         1         0     15364         1         0     15367         1         0
     15370         1         0     15373         1         0     15376         1         0
     15379         1         0     15382         1         0     15386         2         0
     15393         2         0     15404         1         0     15412         1         0
     15421         1         0     15424         1         0     15427         1         0
     15430         1         0     15433         1         0     15436         1         0
     15439         1         0     15441         1         0     15444         1         0
     15446         1         0     15449         1         0     15452         1         0
     15455         1         0     15458         1         0     15461         1         0
     15465         1         0     15468         1         0     15471         1         0
     15474         1         0     15477         1         0     15480         1         0
     15483         1         0     15486         1         0     15489         1         0
     15492         1         0     15495         1         0     15498         1         0
     15501         1         0     15504         1         0     15508         2         0
     15515         2         0     15526         1         0     15534         1         0
     15543         1         0     15546         1         0     15549         1         0
     15552         1         0     15555         1         0     15558         1         0
     15561         1         0     15563         1         0     15566         1         0
     15568         1         0     15571         1         0     15574         1         0
     15577         1         0     15580         1         0     15583         1         0
     15587         1         0     15590         1         0     15593         1         0
     15596         1         0     15599         1         0     15602         1         0
     15605         1         0     15608         1         0     15611         1         0
     15614         1         0     15617         1         0     15620         1         0
     15623         1         0     15626         1         0     15630         2         0
     15637         2         0     15648         1         0     15656         1         0
     15665         1         0     15668         1         0     15671         1         0
     15674         1         0     15677         1         0     15680         1         0
     15683         1         0     15685         1         0     15688         1         0
     15690         1         0     15693         1         0     15696         1         0
     15699         1         0     15702         1         0     15705         1         0
     15709         1         0     15712         1         0     15715         1         0
     15718         1         0     15721         1         0     15724         1         0
     15727         1         0     15730         1         0     15733         1         0
     15736         1         0     15739         1         0     15742         1         0
     15745         1         0     15748         1         0     15752         2         0
     15759         2         0     15770         1         0     15778         1         0
     15787         1         0     15790         1         0     15793         1         0
     15796         1         0     15799         1         0     15802         1         0
     15805         1         0     15807         1         0     15810         1         0
     15812         1         0     15815         1         0     15818         1         0
     15821         1         0     15824         1         0     15827         1         0
     15831         1         0     15834         1         0     15837         1         0
     15840         1         0     15843         1         0     15846         1         0
     15849         1         0     15852         1         0     15855         1         0
     15858         1         0     15861         1         0     15864         1         0
     15867         1         0     15870         1         0     15874         2         0
     15881         2         0     15892         1         0     15900         1         0
     15909         1         0     15912         1         0     15915         1         0
     15918         1         0     15921         1         0     15924         1         0
     15927         1         0     15929         1         0     15931         1         0
     15934         1         0     15937         1         0     15940         1         0
     15943         1         0     15946         1         0     15949         1         0
     15952         1         0     15956         1         0     15959         1         0
     15962         1         0     15965         1         0     15968         1         0
     15971         1         0     15974         1         0     15977         1         0
     15980         1         0     15983         1         0     15986         1         0
     15989         1         0     15992         1         0     15995         1         0
     15999         1         0     16004         1         0     16008         2         0
     16019         1         0     16027         1         0     16036         1         0
     16039         1         0     16042         1         0     16045         1         0
     16048         1         0     16051         1         0     16054         1         0
     16056         1         0     16058         1         0     16061         1         0
     16064         1         0     16067         1         0     16070         1         0
     16073         1         0     16077         1         0     16080         1         0
     16083         1         0     16086         1         0     16089         1         0
     16092         1         0     16095         1         0     16098         1         0
     16101         1         0     16104         1         0     16107         1         0
     16110         1         0     16113         1         0     16116         1         0
     16120         2         0     16131         1         0     16135         2         0
     16146         1         0     16154         1         0     16163         1         0
     16171         1         0     16180         1         0     16183         1         0
     16186         1         0     16189         1         0     16192         1         0
     16195         1         0     16198         1         0     16201         1         0
     16204         1         0     16206         1         0     16208         1         0
     16211         1         0     16214         1         0     16217         1         0
     16220         1         0     16223         1         0     16227         1         0
     16230         1         0     16233         1         0     16236         1         0
     16239         1         0     16242         1         0     16245         1         0
     16248         1         0     16251         1         0     16254         1         0
     16257         1         0     16260         1         0     16263         1         0
     16266         1         0     16270         1         0     16273         1         0
     16276         1         0     16279         1         0     16282         1         0
     16285         1         0     16288         1         0     16291         1         0
     16294         1         0     16296         1         0     16298         1         0
     16301         1         0     16304         1         0     16307         1         0
     16310         1         0     16313         1         0     16317         1         0
     16320         1         0     16323         1         0     16326         1         0
     16329         1         0     16332         1         0     16335         1         0
     16338         1         0     16341         1         0     16344         1         0
     16347         1         0     16350         1         0     16353         1         0
     16356         1         0     16360         2         0     16367         2         0
     16378         1         0     16386         1         0     16395         1         0
     16398         1         0     16401         1         0     16404         1         0
     16407         1         0     16410         1         0     16413         1         0
     16415         1         0     16418         1         0     16420         1         0
     16423         1         0     16426         1         0     16429         1         0
     16432         1         0     16435         1         0     16439         1         0
     16442         1         0     16445         1         0     16448         1         0
     16451         1         0     16454         1         0     16457         1         0
     16460         1         0     16463         1         0     16466         1         0
     16469         1         0     16472         1         0     16475         1         0
     16478         1         0     16482         2         0     16489         2         0
     16500         1         0     16508         1         0     16517         1         0
     16520         1         0     16523         1         0     16526         1         0
     16529         1         0     16532         1         0     16535         1         0
     16537         1         0     16540         1         0     16542         1         0
     16545         1         0     16548         1         0     16551         1         0
     16554         1         0     16557         1         0     16561         1         0
     16564         1         0     16567         1         0     16570         1         0
     16573         1         0     16576         1         0     16579         1         0
     16582         1         0     16585         1         0     16588         1         0
     16591         1         0     16594         1         0     16597         1         0
     16601         2         0     16608         2         0     16619         1         0
     16627         1         0     16636         1         0     16639         1         0
     16642         1         0     16645         1         0     16648         1         0
     16651         1         0     16654         1         0     16656         1         0
     16659         1         0     16661         1         0     16664         1         0
     16667         1         0     16670         1         0     16673         1         0
     16676         1         0     16680         1         0     16683         1         0
     16686         1         0     16689         1         0     16692         1         0
     16695         1         0     16698         1         0     16701         1         0
     16704         1         0     16707         1         0     16710         1         0
     16713         1         0     16716         1         0     16719         1         0
     16723         1         0     16728         1         0     16732         2         0
     16743         1         0     16751         1         0     16760         1         0
     16763         1         0     16766         1         0     16769         1         0
     16772         1         0     16775         1         0     16778         1         0
     16780         1         0     16783         1         0     16785         1         0
     16788         1         0     16791         1         0     16794         1         0
     16797         1         0     16800         1         0     16804         1         0
     16807         1         0     16810         1         0     16813         1         0
     16816         1         0     16819         1         0     16822         1         0
     16825         1         0     16828         1         0     16831         1         0
     16834         1         0     16837         1         0     16840         1         0
     16843         1         0     16847         2         0     16854         2         0
     16865         1         0     16873         1         0     16882         1         0
     16885         1         0     16888         1         0     16891         1         0
     16894         1         0     16897         1         0     16900         1         0
     16902         1         0     16905         1         0     16907         1         0
     16910         1         0     16913         1         0     16916         1         0
     16919         1         0     16922         1         0     16926         1         0
     16929         1         0     16932         1         0     16935         1         0
     16938         1         0     16941         1         0     16944         1         0
     16947         1         0     16950         1         0     16953         1         0
     16956         1         0     16959         1         0     16962         1         0
     16965         1         0     16969         2         0     16976         2         0
     16987         1         0     16995         1         0     17004         1         0
     17007         1         0     17010         1         0     17013         1         0
     17016         1         0     17019         1         0     17022         1         0
     17024         1         0     17026         1         0     17029         1         0
     17032         1         0     17035         1         0     17038         1         0
     17041         1         0     17045         1         0     17048         1         0
     17051         1         0     17054         1         0     17057         1         0
     17060         1         0     17063         1         0     17065         1         0
     17067         1         0     17070         1         0     17073         1         0
     17076         1         0     17079         1         0     17082         1         0
     17085         1         0     17088         1         0     17092         1         0
     17097         1         0     17101         2         0     17112         1         0
     17120         1         0     17129         1         0     17132         1         0
     17135         1         0     17138         1         0     17141         1         0
     17144         1         0     17147         1         0     17149         1         0
     17151         1         0     17154         1         0     17157         1         0
     17160         1         0     17163         1         0     17166         1         0
     17170         1         0     17173         1         0     17176         1         0
     17179         1         0     17182         1         0     17185         1         0
     17188         1         0     17191         1         0     17194         1         0
     17197         1         0     17200         1         0     17203         1         0
     17206         1         0     17209         1         0     17213         2         0
     17220         2         0     17231         1         0     17239         1         0
     17248         1         0     17251         1         0     17254         1         0
     17257         1         0     17260         1         0     17263         1         0
     17266         1         0     17268         1         0     17271         1         0
     17273         1         0     17276         1         0     17279         1         0
     17282         1         0     17285         1         0     17288         1         0
     17292         1         0     17295         1         0     17298         1         0
     17301         1         0     17304         1         0     17307         1         0
     17310         1         0     17313         1         0     17316         1         0
     17319         1         0     17322         1         0     17325         1         0
     17328         1         0     17331         1         0     17335         1         0
     17340         1         0     17344         2         0     17355         1         0
     17363         1         0     17372         1         0     17375         1         0
     17378         1         0     17381         1         0     17384         1         0
     17387         1         0     17390         1         0     17392         1         0
     17394         1         0     17397         1         0     17400         1         0
     17403         1         0     17406         1         0     17409         1         0
     17413         1         0     17416         1         0     17419         1         0
     17422         1         0     17425         1         0     17428         1         0
     17431         1         0     17434         1         0     17437         1         0
     17440         1         0     17443         1         0     17446         1         0
     17449         1         0     17452         1         0     17456         1         0
     17461         1         0     17465         2         0     17476         1         0
     17484         1         0     17493         1         0     17496         1         0
     17499         1         0     17502         1         0     17505         1         0
     17508         1         0     17511         1         0     17513         1         0
     17516         1         0     17518         1         0     17521         1         0
     17524         1         0     17527         1         0     17530         1         0
     17533         1         0     17537         1         0     17540         1         0
     17543         1         0     17546         1         0     17549         1         0
     17552         1         0     17555         1         0     17558         1         0
     17561         1         0     17564         1         0     17567         1         0
     17570         1         0     17573         1         0     17576         1         0
     17580         2         0     17587         2         0     17598         1         0
     17606         1         0     17615         1         0     17618         1         0
     17621         1         0     17624         1         0     17627         1         0
     17630         1         0     17633         1         0     17635         1         0
     17638         1         0     17640         1         0     17643         1         0
     17646         1         0     17649         1         0     17652         1         0
     17655         1         0     17659         1         0     17662         1         0
     17665         1         0     17668         1         0     17671         1         0
     17674         1         0     17677         1         0     17680         1         0
     17683         1         0     17686         1         0     17689         1         0
     17692         1         0     17695         1         0     17699         2         0
     17706         2         0     17717         1         0     17725         1         0
     17734         1         0     17737         1         0     17740         1         0
     17743         1         0     17746         1         0     17749         1         0
     17752         1         0     17754         1         0     17756         1         0
     17759         1         0     17762         1         0     17765         1         0
     17768         1         0     17771         1         0     17775         1         0
     17778         1         0     17781         1         0     17784         1         0
     17787         1         0     17790         1         0     17793         1         0
     17795         1         0     17797         1         0     17800         1         0
     17803         1         0     17806         1         0     17809         1         0
     17812         1         0     17815         1         0     17818         1         0
     17822         2         0     17829         2         0     17840         1         0
     17848         1         0     17857         1         0     17860         1         0
     17863         1         0     17866         1         0     17869         1         0
     17872         1         0     17875         1         0     17877         1         0
     17880         1         0     17882         1         0     17885         1         0
     17888         1         0     17891         1         0     17894         1         0
     17897         1         0     17901         1         0     17904         1         0
     17907         1         0     17910         1         0     17913         1         0
     17916         1         0     17919         1         0     17922         1         0
     17925         1         0     17928         1         0     17931         1         0
     17934         1         0     17937         1         0     17940         1         0
     17944         2         0     17951         2         0     17962         1         0
     17970         1         0     17979         1         0     17982         1         0
     17985         1         0     17988         1         0     17991         1         0
     17994         1         0     17997         1         0     17999         1         0
     18002         1         0     18004         1         0     18007         1         0
     18010         1         0     18013         1         0     18016         1         0
     18019         1         0     18023         1         0     18026         1         0
     18029         1         0     18032         1         0     18035         1         0
     18038         1         0     18041         1         0     18044         1         0
     18047         1         0     18050         1         0     18053         1         0
     18056         1         0     18059         1         0     18062         1         0
     18066         2         0     18073         2         0     18084         1         0
     18092         1         0     18101         1         0     18104         1         0
     18107         1         0     18110         1         0     18113         1         0
     18116         1         0     18119         1         0     18121         1         0
     18124         1         0     18126         1         0     18129         1         0
     18132         1         0     18135         1         0     18138         1         0
     18141         1         0     18145         1         0     18148         1         0
     18151         1         0     18154         1         0     18157         1         0
     18160         1         0     18163         1         0     18166         1         0
     18169         1         0     18172         1         0     18175         1         0
     18178         1         0     18181         1         0     18185         2         0
     18192         2         0     18203         1         0     18211         1         0
     18220         1         0     18223         1         0     18226         1         0
     18229         1         0     18232         1         0     18235         1         0
     18238         1         0     18240         1         0     18243         1         0
     18245         1         0     18248         1         0     18251         1         0
     18254         1         0     18257         1         0     18260         1         0
     18264         1         0     18267         1         0     18270         1         0
     18273         1         0     18276         1         0     18279         1         0
     18282         1         0     18285         1         0     18288         1         0
     18291         1         0     18294         1         0     18297         1         0
     18300         1         0     18303         1         0     18307         2         0
     18314         2         0     18325         1         0     18333         1         0
     18342         1         0     18345         1         0     18348         1         0
     18351         1         0     18354         1         0     18357         1         0
     18360         1         0     18362         1         0     18364         1         0
     18367         1         0     18370         1         0     18373         1         0
     18376         1         0     18379         1         0     18382         1         0
     18385         1         0     18389         1         0     18392         1         0
     18395         1         0     18398         1         0     18401         1         0
     18404         1         0     18407         1         0     18410         1         0
     18413         1         0     18416         1         0     18419         1         0
     18422         1         0     18425         1         0     18428         1         0
     18432         2         0     18439         2         0     18450         1         0
     18458         1         0     18467         1         0     18470         1         0
     18473         1         0     18476         1         0     18479         1         0
     18482         1         0     18485         1         0     18487         1         0
     18490         1         0     18492         1         0     18495         1         0
     18498         1         0     18501         1         0     18504         1         0
     18507         1         0     18511         1         0     18514         1         0
     18517         1         0     18520         1         0     18523         1         0
     18526         1         0     18529         1         0     18532         1         0
     18535         1         0     18538         1         0     18541         1         0
     18544         1         0     18547         1         0     18550         1         0
     18554         2         0     18561         2         0     18572         1         0
     18580         1         0     18589         1         0     18592         1         0
     18595         1         0     18598         1         0     18601         1         0
     18604         1         0     18607         1         0     18609         1         0
     18612         1         0     18614         1         0     18617         1         0
     18620         1         0     18623         1         0     18626         1         0
     18629         1         0     18633         1         0     18636         1         0
     18639         1         0     18642         1         0     18645         1         0
     18648         1         0     18651         1         0     18654         1         0
     18657         1         0     18660         1         0     18663         1         0
     18666         1         0     18669         1         0     18672         1         0
     18676         2         0     18683         2         0     18694         1         0
     18702         1         0     18711         1         0     18714         1         0
     18717         1         0     18720         1         0     18723         1         0
     18726         1         0     18729         1         0     18731         1         0
     18734         1         0     18736         1         0     18739         1         0
     18742         1         0     18745         1         0     18748         1         0
     18751         1         0     18755         1         0     18758         1         0
     18761         1         0     18764         1         0     18767         1         0
     18770         1         0     18773         1         0     18776         1         0
     18779         1         0     18782         1         0     18785         1         0
     18788         1         0     18791         1         0     18794         1         0
     18798         2         0     18805         2         0     18816         1         0
     18824         1         0     18833         1         0     18836         1         0
     18839         1         0     18842         1         0     18845         1         0
     18848         1         0     18851         1         0     18853         1         0
     18856         1         0     18858         1         0     18861         1         0
     18864         1         0     18867         1         0     18870         1         0
     18873         1         0     18877         1         0     18880         1         0
     18883         1         0     18886         1         0     18889         1         0
     18892         1         0     18895         1         0     18898         1         0
     18901         1         0     18904         1         0     18907         1         0
     18910         1         0     18913         1         0     18916         1         0
     18920         2         0     18927         2         0     18938         1         0
     18946         1         0     18955         1         0     18958         1         0
     18961         1         0     18964         1         0     18967         1         0
     18970         1         0     18973         1         0     18975         1         0
     18978         1         0     18980         1         0     18983         1         0
     18986         1         0     18989         1         0     18992         1         0
     18995         1         0     18999         1         0     19002         1         0
     19005         1         0     19008         1         0     19011         1         0
     19014         1         0     19017         1         0     19020         1         0
     19023         1         0     19026         1         0     19029         1         0
     19032         1         0     19035         1         0     19038         1         0
     19042         2         0     19049         2         0     19060         1         0
     19068         1         0     19077         1         0     19080         1         0
     19083         1         0     19086         1         0     19089         1         0
     19092         1         0     19095         1         0     19097         1         0
     19100         1         0     19102         1         0     19105         1         0
     19108         1         0     19111         1         0     19114         1         0
     19117         1         0     19121         1         0     19124         1         0
     19127         1         0     19130         1         0     19133         1         0
     19136         1         0     19139         1         0     19142         1         0
     19145         1         0     19148         1         0     19151         1         0
     19154         1         0     19157         1         0     19160         1         0
     19164         2         0     19171         2         0     19182         1         0
     19190         1         0     19199         1         0     19202         1         0
     19205         1         0     19208         1         0     19211         1         0
     19214         1         0     19217         1         0     19219         1         0
     19221         1         0     19224         1         0     19227         1         0
     19230         1         0     19233         1         0     19236         1         0
     19239         1         0     19242         1         0     19246         1         0
     19249         1         0     19252         1         0     19255         1         0
     19258         1         0     19261         1         0     19264         1         0
     19267         1         0     19270         1         0     19273         1         0
     19276         1         0     19279         1         0     19282         1         0
     19285         1         0     19289         2         0     19296         2         0
     19307         1         0     19315         1         0     19324         1         0
     19327         1         0     19330         1         0     19333         1         0
     19336         1         0     19339         1         0     19342         1         0
     19344         1         0     19347         1         0     19349         1         0
     19352         1         0     19355         1         0     19358         1         0
     19361         1         0     19364         1         0     19368         1         0
     19371         1         0     19374         1         0     19377         1         0
     19380         1         0     19383         1         0     19386         1         0
     19389         1         0     19392         1         0     19395         1         0
     19398         1         0     19401         1         0     19404         1         0
     19407         1         0     19411         2         0     19418         2         0
     19429         1         0     19437         1         0     19446         1         0
     19449         1         0     19452         1         0     19455         1         0
     19458         1         0     19461         1         0     19464         1         0
     19466         1         0     19468         1         0     19471         1         0
     19474         1         0     19477         1         0     19480         1         0
     19483         1         0     19486         1         0     19489         1         0
     19493         1         0     19496         1         0     19499         1         0
     19502         1         0     19505         1         0     19508         1         0
     19511         1         0     19514         1         0     19517         1         0
     19520         1         0     19523         1         0     19526         1         0
     19529         1         0     19532         1         0     19536         2         0
     19543         2         0     19554         1         0     19562         1         0
     19571         1         0     19574         1         0     19577         1         0
     19580         1         0     19583         1         0     19586         1         0
     19589         1         0     19591         1         0     19594         1         0
     19596         1         0     19599         1         0     19602         1         0
     19605         1         0     19608         1         0     19611         1         0
     19615         1         0     19618         1         0     19621         1         0
     19624         1         0     19627         1         0     19630         1         0
     19633         1         0     19636         1         0     19639         1         0
     19642         1         0     19645         1         0     19648         1         0
     19651         1         0     19654         1         0     19658         2         0
     19665         2         0     19676         1         0     19684         1         0
     19693         1         0     19696         1         0     19699         1         0
     19702         1         0     19705         1         0     19708         1         0
     19711         1         0     19713         1         0     19716         1         0
     19718         1         0     19721         1         0     19724         1         0
     19727         1         0     19730         1         0     19733         1         0
     19737         1         0     19740         1         0     19743         1         0
     19746         1         0     19749         1         0     19752         1         0
     19755         1         0     19758         1         0     19761         1         0
     19764         1         0     19767         1         0     19770         1         0
     19773         1         0     19777         2         0     19784         2         0
     19795         1         0     19803         1         0     19812         1         0
     19815         1         0     19818         1         0     19821         1         0
     19824         1         0     19827         1         0     19830         1         0
     19832         1         0     19835         1         0     19837         1         0
     19840         1         0     19843         1         0     19846         1         0
     19849         1         0     19852         1         0     19856         1         0
     19859         1         0     19862         1         0     19865         1         0
     19868         1         0     19871         1         0     19874         1         0
     19877         1         0     19880         1         0     19883         1         0
     19886         1         0     19889         1         0     19892         1         0
     19895         1         0     19899         2         0     19906         2         0
     19917         1         0     19925         1         0     19934         1         0
     19937         1         0     19940         1         0     19943         1         0
     19946         1         0     19949         1         0     19952         1         0
     19954         1         0     19957         1         0     19959         1         0
     19962         1         0     19965         1         0     19968         1         0
     19971         1         0     19974         1         0     19978         1         0
     19981         1         0     19984         1         0     19987         1         0
     19990         1         0     19993         1         0     19996         1         0
     19999         1         0     20002         1         0     20005         1         0
     20008         1         0     20011         1         0     20014         1         0
     20017         1         0     20021         2         0     20028         2         0
     20039         1         0     20047         1         0     20056         1         0
     20059         1         0     20062         1         0     20065         1         0
     20068         1         0     20071         1         0     20074         1         0
     20076         1         0     20079         1         0     20081         1         0
     20084         1         0     20087         1         0     20090         1         0
     20093         1         0     20096         1         0     20100         1         0
     20103         1         0     20106         1         0     20109         1         0
     20112         1         0     20115         1         0     20118         1         0
     20121         1         0     20124         1         0     20127         1         0
     20130         1         0     20133         1         0     20136         1         0
     20139         1         0     20143         2         0     20150         2         0
     20161         1         0     20169         1         0     20178         1         0
     20181         1         0     20184         1         0     20187         1         0
     20190         1         0     20193         1         0     20196         1         0
     20198         1         0     20200         1         0     20203         1         0
     20206         1         0     20209         1         0     20212         1         0
     20215         1         0     20219         1         0     20222         1         0
     20225         1         0     20228         1         0     20231         1         0
     20234         1         0     20237         1         0     20239         1         0
     20241         1         0     20244         1         0     20247         1         0
     20250         1         0     20253         1         0     20256         1         0
     20259         1         0     20262         1         0     20266         2         0
     20273         2         0     20284         1         0     20292         1         0
     20301         1         0     20304         1         0     20307         1         0
     20310         1         0     20313         1         0     20316         1         0
     20319         1         0     20321         1         0     20324         1         0
     20326         1         0     20329         1         0     20332         1         0
     20335         1         0     20338         1         0     20341         1         0
     20345         1         0     20348         1         0     20351         1         0
     20354         1         0     20357         1         0     20360         1         0
     20363         1         0     20366         1         0     20369         1         0
     20372         1         0     20375         1         0     20378         1         0
     20381         1         0     20384         1         0     20388         2         0
     20395         2         0     20406         1         0     20414         1         0
     20423         1         0     20426         1         0     20429         1         0
     20432         1         0     20435         1         0     20438         1         0
     20441         1         0     20443         1         0     20446         1         0
     20448         1         0     20451         1         0     20454         1         0
     20457         1         0     20460         1         0     20463         1         0
     20467         1         0     20470         1         0     20473         1         0
     20476         1         0     20479         1         0     20482         1         0
     20485         1         0     20488         1         0     20491         1         0
     20494         1         0     20497         1         0     20500         1         0
     20503         1         0     20506         1         0     20510         1         0
     20515         1         0     20519         2         0     20530         1         0
     20538         1         0     20547         1         0     20550         1         0
     20553         1         0     20556         1         0     20559         1         0
     20562         1         0     20565         1         0     20567         1         0
     20570         1         0     20572         1         0     20575         1         0
     20578         1         0     20581         1         0     20584         1         0
     20587         1         0     20591         1         0     20594         1         0
     20597         1         0     20600         1         0     20603         1         0
     20606         1         0     20609         1         0     20612         1         0
     20615         1         0     20618         1         0     20621         1         0
     20624         1         0     20627         1         0     20630         1         0
     20634         2         0     20641         2         0     20652         1         0
     20660         1         0     20669         1         0     20672         1         0
     20675         1         0     20678         1         0     20681         1         0
     20684         1         0     20687         1         0     20689         1         0
     20692         1         0     20694         1         0     20697         1         0
     20700         1         0     20703         1         0     20706         1         0
     20709         1         0     20713         1         0     20716         1         0
     20719         1         0     20722         1         0     20725         1         0
     20728         1         0     20731         1         0     20734         1         0
     20737         1         0     20740         1         0     20743         1         0
     20746         1         0     20749         1         0     20753         2         0
     20760         2         0     20771         1         0     20779         1         0
     20788         1         0     20791         1         0     20794         1         0
     20797         1         0     20800         1         0     20803         1         0
     20806         1         0     20808         1         0     20811         1         0
     20813         1         0     20816         1         0     20819         1         0
     20822         1         0     20825         1         0     20828         1         0
     20832         1         0     20835         1         0     20838         1         0
     20841         1         0     20844         1         0     20847         1         0
     20850         1         0     20853         1         0     20856         1         0
     20859         1         0     20862         1         0     20865         1         0
     20868         1         0     20871         1         0     20875         2         0
     20882         2         0     20893         1         0     20901         1         0
     20910         1         0     20913         1         0     20916         1         0
     20919         1         0     20922         1         0     20925         1         0
     20928         1         0     20930         1         0     20933         1         0
     20935         1         0     20938         1         0     20941         1         0
     20944         1         0     20947         1         0     20950         1         0
     20954         1         0     20957         1         0     20960         1         0
     20963         1         0     20966         1         0     20969         1         0
     20972         1         0     20975         1         0     20978         1         0
     20981         1         0     20984         1         0     20987         1         0
     20990         1         0     20993         1         0     20997         2         0
     21004         2         0     21015         1         0     21023         1         0
     21032         1         0     21035         1         0     21038         1         0
     21041         1         0     21044         1         0     21047         1         0
     21050         1         0     21052         1         0     21054         1         0
     21057         1         0     21060         1         0     21063         1         0
     21066         1         0     21069         1         0     21073         1         0
     21076         1         0     21079         1         0     21082         1         0
     21085         1         0     21088         1         0     21091         1         0
     21093         1         0     21095         1         0     21098         1         0
     21101         1         0     21104         1         0     21107         1         0
     21110         1         0     21113         1         0     21116         1         0
     21120         1         0     21125         1         0     21129         2         0
     21140         1         0     21148         1         0     21157         1         0
     21160         1         0     21163         1         0     21166         1         0
     21169         1         0     21172         1         0     21175         1         0
     21177         1         0     21179         1         0     21182         1         0
     21185         1         0     21188         1         0     21191         1         0
     21194         1         0     21198         1         0     21201         1         0
     21204         1         0     21207         1         0     21210         1         0
     21213         1         0     21216         1         0     21219         1         0
     21222         1         0     21225         1         0     21228         1         0
     21231         1         0     21234         1         0     21237         1         0
     21241         2         0     21248         2         0     21259         1         0
     21267         1         0     21276         1         0     21279         1         0
     21282         1         0     21285         1         0     21288         1         0
     21291         1         0     21294         1         0     21296         1         0
     21299         1         0     21301         1         0     21304         1         0
     21307         1         0     21310         1         0     21313         1         0
     21316         1         0     21320         1         0     21323         1         0
     21326         1         0     21329         1         0     21332         1         0
     21335         1         0     21338         1         0     21341         1         0
     21344         1         0     21347         1         0     21350         1         0
     21353         1         0     21356         1         0     21359         1         0
     21363         2         0     21370         2         0     21381         1         0
     21389         1         0     21398         1         0     21401         1         0
     21404         1         0     21407         1         0     21410         1         0
     21413         1         0     21416         1         0     21418         1         0
     21421         1         0     21423         1         0     21426         1         0
     21429         1         0     21432         1         0     21435         1         0
     21438         1         0     21442         1         0     21445         1         0
     21448         1         0     21451         1         0     21454         1         0
     21457         1         0     21460         1         0     21463         1         0
     21466         1         0     21469         1         0     21472         1         0
     21475         1         0     21478         1         0     21481         1         0
     21485         2         0     21492         2         0     21503         1         0
     21511         1         0     21520         1         0     21523         1         0
     21526         1         0     21529         1         0     21532         1         0
     21535         1         0     21538         1         0     21540         1         0
     21543         1         0     21545         1         0     21548         1         0
     21551         1         0     21554         1         0     21557         1         0
     21560         1         0     21564         1         0     21567         1         0
     21570         1         0     21573         1         0     21576         1         0
     21579         1         0     21582         1         0     21585         1         0
     21588         1         0     21591         1         0     21594         1         0
     21597         1         0     21600         1         0     21603         1         0
     21607         2         0     21614         2         0     21625         1         0
     21633         1         0     21642         1         0     21645         1         0
     21648         1         0     21651         1         0     21654         1         0
     21657         1         0     21660         1         0     21662         1         0
     21665         1         0     21667         1         0     21670         1         0
     21673         1         0     21676         1         0     21679         1         0
     21682         1         0     21686         1         0     21689         1         0
     21692         1         0     21695         1         0     21698         1         0
     21701         1         0     21704         1         0     21707         1         0
     21710         1         0     21713         1         0     21716         1         0
     21719         1         0     21722         1         0     21725         1         0
     21729         2         0     21736         2         0     21747         1         0
     21755         1         0     21764         1         0     21767         1         0
     21770         1         0     21773         1         0     21776         1         0
     21779         1         0     21782         1         0     21784         1         0
     21787         1         0     21789         1         0     21792         1         0
     21795         1         0     21798         1         0     21801         1         0
     21804         1         0     21808         1         0     21811         1         0
     21814         1         0     21817         1         0     21820         1         0
     21823         1         0     21826         1         0     21829         1         0
     21832         1         0     21835         1         0     21838         1         0
     21841         1         0     21844         1         0     21847         1         0
     21851         2         0     21858         2         0     21869         1         0
     21877         1         0     21886         1         0     21889         1         0
     21892         1         0     21895         1         0     21898         1         0
     21901         1         0     21904         1         0     21906         1         0
     21908         1         0     21911         1         0     21914         1         0
     21917         1         0     21920         1         0     21923         1         0
     21926         1         0     21929         1         0     21933         1         0
     21936         1         0     21939         1         0     21942         1         0
     21945         1         0     21948         1         0     21951         1         0
     21954         1         0     21957         1         0     21960         1         0
     21963         1         0     21966         1         0     21969         1         0
     21972         1         0     21976         2         0     21983         2         0
     21994         1         0     22002         1         0     22011         1         0
     22014         1         0     22017         1         0     22020         1         0
     22023         1         0     22026         1         0     22029         1         0
     22031         1         0     22033         1         0     22036         1         0
     22039         1         0     22042         1         0     22045         1         0
     22048         1         0     22052         1         0     22055         1         0
     22058         1         0     22061         1         0     22064         1         0
     22067         1         0     22070         1         0     22072         1         0
     22074         1         0     22077         1         0     22080         1         0
     22083         1         0     22086         1         0     22089         1         0
     22092         1         0     22095         1         0     22099         2         0
     22106         2         0     22117         1         0     22125         1         0
     22134         1         0     22137         1         0     22140         1         0
     22143         1         0     22146         1         0     22149         1         0
     22152         1         0     22154         1         0     22157         1         0
     22159         1         0     22162         1         0     22165         1         0
     22168         1         0     22171         1         0     22174         1         0
     22178         1         0     22181         1         0     22184         1         0
     22187         1         0     22190         1         0     22193         1         0
     22196         1         0     22199         1         0     22202         1         0
     22205         1         0     22208         1         0     22211         1         0
     22214         1         0     22218         2         0     22225         2         0
     22236         1         0     22244         1         0     22253         1         0
     22256         1         0     22259         1         0     22262         1         0
     22265         1         0     22268         1         0     22271         1         0
     22273         1         0     22276         1         0     22278         1         0
     22281         1         0     22284         1         0     22287         1         0
     22290         1         0     22293         1         0     22297         1         0
     22300         1         0     22303         1         0     22306         1         0
     22309         1         0     22312         1         0     22315         1         0
     22318         1         0     22321         1         0     22324         1         0
     22327         1         0     22330         1         0     22333         1         0
     22337         2         0     22344         2         0     22355         1         0
     22363         1         0     22372         1         0     22375         1         0
     22378         1         0     22381         1         0     22384         1         0
     22387         1         0     22390         1         0     22392         1         0
     22395         1         0     22397         1         0     22400         1         0
     22403         1         0     22406         1         0     22409         1         0
     22412         1         0     22416         1         0     22419         1         0
     22422         1         0     22425         1         0     22428         1         0
     22431         1         0     22434         1         0     22437         1         0
     22440         1         0     22443         1         0     22446         1         0
     22449         1         0     22452         1         0     22455         1         0
     22459         1         0     22464         1         0     22468         2         0
     22479         1         0     22487         1         0     22496         1         0
     22499         1         0     22502         1         0     22505         1         0
     22508         1         0     22511         1         0     22514         1         0
     22516         1         0     22519         1         0     22521         1         0
     22524         1         0     22527         1         0     22530         1         0
     22533         1         0     22536         1         0     22540         1         0
     22543         1         0     22546         1         0     22549         1         0
     22552         1         0     22555         1         0     22558         1         0
     22561         1         0     22564         1         0     22567         1         0
     22570         1         0     22573         1         0     22576         1         0
     22579         1         0     22583         1         0     22588         1         0
     22592         2         0     22603         1         0     22611         1         0
     22620         1         0     22623         1         0     22626         1         0
     22629         1         0     22632         1         0     22635         1         0
     22638         1         0     22640         1         0     22643         1         0
     22645         1         0     22648         1         0     22651         1         0
     22654         1         0     22657         1         0     22660         1         0
     22664         1         0     22667         1         0     22670         1         0
     22673         1         0     22676         1         0     22679         1         0
     22682         1         0     22685         1         0     22688         1         0
     22691         1         0     22694         1         0     22697         1         0
     22700         1         0     22703         1         0     22707         2         0
     22714         2         0     22725         1         0     22733         1         0
     22742         1         0     22745         1         0     22748         1         0
     22751         1         0     22754         1         0     22757         1         0
     22760         1         0     22762         1         0     22764         1         0
     22767         1         0     22770         1         0     22773         1         0
     22776         1         0     22779         1         0     22783         1         0
     22786         1         0     22789         1         0     22792         1         0
     22795         1         0     22798         1         0     22801         1         0
     22803         1         0     22805         1         0     22808         1         0
     22811         1         0     22814         1         0     22817         1         0
     22820         1         0     22823         1         0     22826         1         0
     22830         2         0     22837         2         0     22848         1         0
     22856         1         0     22865         1         0     22868         1         0
     22871         1         0     22874         1         0     22877         1         0
     22880         1         0     22883         1         0     22885         1         0
     22887         1         0     22890         1         0     22893         1         0
     22896         1         0     22899         1         0     22902         1         0
     22905         1         0     22908         1         0     22912         1         0
     22915         1         0     22918         1         0     22921         1         0
     22924         1         0     22927         1         0     22930         1         0
     22933         1         0     22936         1         0     22939         1         0
     22942         1         0     22945         1         0     22948         1         0
     22951         1         0     22955         1         0     22960         1         0
     22964         2         0     22975         1         0     22983         1         0
     22992         1         0     22995         1         0     22998         1         0
     23001         1         0     23004         1         0     23007         1         0
     23010         1         0     23012         1         0     23015         1         0
     23017         1         0     23020         1         0     23023         1         0
     23026         1         0     23029         1         0     23032         1         0
     23036         1         0     23039         1         0     23042         1         0
     23045         1         0     23048         1         0     23051         1         0
     23054         1         0     23057         1         0     23060         1         0
     23063         1         0     23066         1         0     23069         1         0
     23072         1         0     23075         1         0     23079         2         0
     23086         2         0     23097         1         0     23105         1         0
     23114         1         0     23117         1         0     23120         1         0
     23123         1         0     23126         1         0     23129         1         0
     23132         1         0     23134         1         0     23137         1         0
     23139         1         0     23142         1         0     23145         1         0
     23148         1         0     23151         1         0     23154         1         0
     23158         1         0     23161         1         0     23164         1         0
     23167         1         0     23170         1         0     23173         1         0
     23176         1         0     23179         1         0     23182         1         0
     23185         1         0     23188         1         0     23191         1         0
     23194         1         0     23197         1         0     23201         1         0
     23206         1         0     23210         2         0     23221         1         0
     23229         1         0     23238         1         0     23241         1         0
     23244         1         0     23247         1         0     23250         1         0
     23253         1         0     23256         1         0     23258         1         0
     23261         1         0     23263         1         0     23266         1         0
     23269         1         0     23272         1         0     23275         1         0
     23278         1         0     23282         1         0     23285         1         0
     23288         1         0     23291         1         0     23294         1         0
     23297         1         0     23300         1         0     23303         1         0
     23306         1         0     23309         1         0     23312         1         0
     23315         1         0     23318         1         0     23321         1         0
     23325         1         0     23330         1         0     23334         2         0
     23345         1         0     23353         1         0     23362         1         0
     23365         1         0     23368         1         0     23371         1         0
     23374         1         0     23377         1         0     23380         1         0
     23382         1         0     23384         1         0     23387         1         0
     23390         1         0     23393         1         0     23396         1         0
     23399         1         0     23403         1         0     23406         1         0
     23409         1         0     23412         1         0     23415         1         0
     23418         1         0     23421         1         0     23424         1         0
     23427         1         0     23430         1         0     23433         1         0
     23436         1         0     23439         1         0     23442         1         0
     23446         2         0     23453         2         0     23464         1         0
     23472         1         0     23481         1         0     23484         1         0
     23487         1         0     23490         1         0     23493         1         0
     23496         1         0     23499         1         0     23501         1         0
     23503         1         0     23506         1         0     23509         1         0
     23512         1         0     23515         1         0     23518         1         0
     23521         1         0     23524         1         0     23528         1         0
     23531         1         0     23534         1         0     23537         1         0
     23540         1         0     23543         1         0     23546         1         0
     23549         1         0     23552         1         0     23555         1         0
     23558         1         0     23561         1         0     23564         1         0
     23567         1         0     23571         2         0     23578         2         0
     23589         1         0     23597         1         0     23606         1         0
     23609         1         0     23612         1         0     23615         1         0
     23618         1         0     23621         1         0     23624         1         0
     23626         1         0     23629         1         0     23631         1         0
     23634         1         0     23637         1         0     23640         1         0
     23643         1         0     23646         1         0     23650         1         0
     23653         1         0     23656         1         0     23659         1         0
     23662         1         0     23665         1         0     23668         1         0
     23671         1         0     23674         1         0     23677         1         0
     23680         1         0     23683         1         0     23686         1         0
     23689         1         0     23693         1         0     23698         1         0
     23702         2         0     23713         1         0     23721         1         0
     23730         1         0     23733         1         0     23736         1         0
     23739         1         0     23742         1         0     23745         1         0
     23748         1         0     23750         1         0     23753         1         0
     23755         1         0     23758         1         0     23761         1         0
     23764         1         0     23767         1         0     23770         1         0
     23774         1         0     23777         1         0     23780         1         0
     23783         1         0     23786         1         0     23789         1         0
     23792         1         0     23795         1         0     23798         1         0
     23801         1         0     23804         1         0     23807         1         0
     23810         1         0     23813         1         0     23817         1         0
     23822         1         0     23826         2         0     23837         1         0
     23845         1         0     23854         1         0     23857         1         0
     23860         1         0     23863         1         0     23866         1         0
     23869         1         0     23872         1         0     23874         1         0
     23877         1         0     23879         1         0     23882         1         0
     23885         1         0     23888         1         0     23891         1         0
     23894         1         0     23898         1         0     23901         1         0
     23904         1         0     23907         1         0     23910         1         0
     23913         1         0     23916         1         0     23919         1         0
     23922         1         0     23925         1         0     23928         1         0
     23931         1         0     23934         1         0     23937         1         0
     23941         1         0     23946         1         0     23950         2         0
     23961         1         0     23969         1         0     23978         1         0
     23981         1         0     23984         1         0     23987         1         0
     23990         1         0     23993         1         0     23996         1         0
     23998         1         0     24000         1         0     24003         1         0
     24006         1         0     24009         1         0     24012         1         0
     24015         1         0     24019         1         0     24022         1         0
     24025         1         0     24028         1         0     24031         1         0
     24034         1         0     24037         1         0     24040         1         0
     24043         1         0     24046         1         0     24049         1         0
     24052         1         0     24055         1         0     24058         1         0
     24062         2         0     24069         2         0     24080         1         0
     24088         1         0     24097         1         0     24100         1         0
     24103         1         0     24106         1         0     24109         1         0
     24112         1         0     24115         1         0     24117         1         0
     24119         1         0     24122         1         0     24125         1         0
     24128         1         0     24131         1         0     24134         1         0
     24137         1         0     24140         1         0     24144         1         0
     24147         1         0     24150         1         0     24153         1         0
     24156         1         0     24159         1         0     24162         1         0
     24165         1         0     24168         1         0     24171         1         0
     24174         1         0     24177         1         0     24180         1         0
     24183         1         0     24187         2         0     24194         2         0
     24205         1         0     24213         1         0     24222         1         0
     24225         1         0     24228         1         0     24231         1         0
     24234         1         0     24237         1         0     24240         1         0
     24242         1         0     24245         1         0     24247         1         0
     24250         1         0     24253         1         0     24256         1         0
     24259         1         0     24262         1         0     24266         1         0
     24269         1         0     24272         1         0     24275         1         0
     24278         1         0     24281         1         0     24284         1         0
     24287         1         0     24290         1         0     24293         1         0
     24296         1         0     24299         1         0     24302         1         0
     24305         1         0     24309         2         0     24316         2         0
     24327         1         0     24335         1         0     24344         1         0
     24347         1         0     24350         1         0     24353         1         0
     24356         1         0     24359         1         0     24362         1         0
     24364         1         0     24366         1         0     24369         1         0
     24372         1         0     24375         1         0     24378         1         0
     24381         1         0     24384         1         0     24387         1         0
     24391         1         0     24394         1         0     24397         1         0
     24400         1         0     24403         1         0     24406         1         0
     24409         1         0     24412         1         0     24415         1         0
     24418         1         0     24421         1         0     24424         1         0
     24427         1         0     24430         1         0     24434         2         0
     24441         2         0     24452         1         0     24460         1         0
     24469         1         0     24472         1         0     24475         1         0
     24478         1         0     24481         1         0     24484         1         0
     24487         1         0     24489         1         0     24492         1         0
     24494         1         0     24497         1         0     24500         1         0
     24503         1         0     24506         1         0     24509         1         0
     24513         1         0     24516         1         0     24519         1         0
     24522         1         0     24525         1         0     24528         1         0
     24531         1         0     24534         1         0     24537         1         0
     24540         1         0     24543         1         0     24546         1         0
     24549         1         0     24552         1         0     24556         2         0
     24563         2         0     24574         1         0     24582         1         0
     24591         1         0     24594         1         0     24597         1         0
     24600         1         0     24603         1         0     24606         1         0
     24609         1         0     24611         1         0     24614         1         0
     24616         1         0     24619         1         0     24622         1         0
     24625         1         0     24628         1         0     24631         1         0
     24635         1         0     24638         1         0     24641         1         0
     24644         1         0     24647         1         0     24650         1         0
     24653         1         0     24656         1         0     24659         1         0
     24662         1         0     24665         1         0     24668         1         0
     24671         1         0     24675         2         0     24682         2         0
     24693         1         0     24701         1         0     24710         1         0
     24713         1         0     24716         1         0     24719         1         0
     24722         1         0     24725         1         0     24728         1         0
     24730         1         0     24733         1         0     24735         1         0
     24738         1         0     24741         1         0     24744         1         0
     24747         1         0     24750         1         0     24754         1         0
     24757         1         0     24760         1         0     24763         1         0
     24766         1         0     24769         1         0     24772         1         0
     24775         1         0     24778         1         0     24781         1         0
     24784         1         0     24787         1         0     24790         1         0
     24793         1         0     24797         2         0     24804         2         0
     24815         1         0     24823         1         0     24832         1         0
     24835         1         0     24838         1         0     24841         1         0
     24844         1         0     24847         1         0     24850         1         0
     24852         1         0     24855         1         0     24857         1         0
     24860         1         0     24863         1         0     24866         1         0
     24869         1         0     24872         1         0     24876         1         0
     24879         1         0     24882         1         0     24885         1         0
     24888         1         0     24891         1         0     24894         1         0
     24897         1         0     24900         1         0     24903         1         0
     24906         1         0     24909         1         0     24912         1         0

         0         0 !NUMLP NUMLPH

         0 !NCRTERM: cross-terms

