* GENERATED BY CHARMM-GUI (HTTP://WWW.CHARMM-GUI.ORG) V3.7 ON MAY, 16. 2026. JOB
* GENERATES ION CONFORMATION USING MONTE-CARLO SIMULATION
*  DATE:     5/16/26      3:12:22      CREATED BY USER: charmm-gui
*
       319  EXT
         1         1  CAL       CAL            29.4321704000       39.5485454000       19.8751262000  IONS      1               2.0000000000
         2         2  CAL       CAL            -5.3340612100       12.4227819000       18.1311366000  IONS      2               2.0000000000
         3         3  CAL       CAL            32.7718426000      -35.2586512000       17.6415432000  IONS      3               2.0000000000
         4         4  CAL       CAL            10.5026132000      -21.4109115000       18.7592136000  IONS      4               2.0000000000
         5         5  CAL       CAL            -7.4752244800        1.2823011100       18.7515492000  IONS      5               2.0000000000
         6         6  CAL       CAL            14.5492633000      -21.3348914000       14.5706253000  IONS      6               2.0000000000
         7         7  CAL       CAL           -10.5184482000       27.7812937000       17.6998950000  IONS      7               2.0000000000
         8         8  CAL       CAL           -36.0130577000       -8.5353497700       19.0875142000  IONS      8               2.0000000000
         9         9  CAL       CAL            16.7320752000        2.3463740500       17.2107091000  IONS      9               2.0000000000
        10        10  CAL       CAL            -2.6412838500       -7.6990484800       19.9612623000  IONS      10              2.0000000000
        11        11  CAL       CAL           -34.3446157000       31.4554333000       20.4954280000  IONS      11              2.0000000000
        12        12  CAL       CAL             4.6775925900       25.8023602000       21.4790329000  IONS      12              2.0000000000
        13        13  CAL       CAL             7.4957439600      -16.0867158000       21.3467957000  IONS      13              2.0000000000
        14        14  CAL       CAL            32.4938735000      -33.6616746000       13.4652270000  IONS      14              2.0000000000
        15        15  CAL       CAL            40.0404716000       13.5808028000       22.2084072000  IONS      15              2.0000000000
        16        16  CAL       CAL            -5.4564933600      -30.6524570000       18.6136631000  IONS      16              2.0000000000
        17        17  CAL       CAL             7.4287372500       40.6808407000       14.6054413000  IONS      17              2.0000000000
        18        18  CAL       CAL           -20.9713664000       23.5511603000       14.9039515000  IONS      18              2.0000000000
        19        19  CAL       CAL            29.4865256000      -37.4963270000       17.0221706000  IONS      19              2.0000000000
        20        20  CAL       CAL            16.4342635000      -19.6550617000       20.2749905000  IONS      20              2.0000000000
        21        21  CAL       CAL           -14.0200697000      -40.6688556000       21.2213080000  IONS      21              2.0000000000
        22        22  CAL       CAL            34.7348308000      -22.9723918000       10.1994780000  IONS      22              2.0000000000
        23        23  CAL       CAL            38.0193499000      -33.2865002000       14.3134449000  IONS      23              2.0000000000
        24        24  CAL       CAL           -18.3945454000       25.7677125000       18.8689421000  IONS      24              2.0000000000
        25        25  CAL       CAL            36.2596234000      -37.6324660000       20.5062705000  IONS      25              2.0000000000
        26        26  CAL       CAL            10.7861018000      -16.7038699000       15.2254592000  IONS      26              2.0000000000
        27        27  CAL       CAL            34.6998785000       39.4820359000       23.9952129000  IONS      27              2.0000000000
        28        28  CAL       CAL            -9.2969784000       40.5804137000       21.0192637000  IONS      28              2.0000000000
        29        29  CAL       CAL             9.3453313400       22.9685096000       20.5025823000  IONS      29              2.0000000000
        30        30  CAL       CAL            21.6628019000      -38.6530301000       22.3320484000  IONS      30              2.0000000000
        31        31  CAL       CAL            21.9127040000       14.1689455000       18.7286835000  IONS      31              2.0000000000
        32        32  CAL       CAL           -34.8401315000       34.4275970000       15.8366446000  IONS      32              2.0000000000
        33        33  CAL       CAL           -14.1945670000       24.5396529000       18.6611853000  IONS      33              2.0000000000
        34        34  CAL       CAL            -9.3175304600      -17.0154026000       21.2270480000  IONS      34              2.0000000000
        35        35  CAL       CAL           -35.7493809000       -5.9885181000       13.5411227000  IONS      35              2.0000000000
        36        36  CAL       CAL            35.6714570000      -26.7611574000       16.6299758000  IONS      36              2.0000000000
        37        37  CAL       CAL            -7.0422615100       17.2360571000       18.9275592000  IONS      37              2.0000000000
        38        38  CAL       CAL            25.1892232000       10.6192393000       19.1187260000  IONS      38              2.0000000000
        39        39  CAL       CAL            37.7943712000      -22.6430075000       18.1227161000  IONS      39              2.0000000000
        40        40  CAL       CAL           -36.2529984000       -0.7143195100       19.6054904000  IONS      40              2.0000000000
        41        41  CAL       CAL            30.8323829000       -5.3881384100       20.7519318000  IONS      41              2.0000000000
        42        42  CAL       CAL            15.6420181000       -8.8683890900       22.1864458000  IONS      42              2.0000000000
        43        43  CAL       CAL             4.1131230900      -13.1231490000       17.1278329000  IONS      43              2.0000000000
        44        44  CAL       CAL            11.9597549000       40.4975733000       18.8287297000  IONS      44              2.0000000000
        45        45  CAL       CAL            17.3155756000      -24.3823347000       15.4416360000  IONS      45              2.0000000000
        46        46  CAL       CAL           -26.6289198000       19.5904253000       21.0640533000  IONS      46              2.0000000000
        47        47  CAL       CAL            32.9862061000       40.0670590000       14.6646514000  IONS      47              2.0000000000
        48        48  CAL       CAL           -40.0520040000      -23.7689982000       21.4865377000  IONS      48              2.0000000000
        49        49  CAL       CAL            19.9559636000        9.4405444100       20.2701876000  IONS      49              2.0000000000
        50        50  CAL       CAL           -27.6111546000      -11.8498860000       21.4260923000  IONS      50              2.0000000000
        51        51  CAL       CAL           -21.8039357000      -34.8028127000       18.9839958000  IONS      51              2.0000000000
        52        52  CAL       CAL           -36.6639037000        0.4419858810       10.1468580000  IONS      52              2.0000000000
        53        53  CAL       CAL           -21.1808738000      -29.4487849000       20.3165752000  IONS      53              2.0000000000
        54        54  CAL       CAL           -13.7435545000       37.5431273000       18.1105841000  IONS      54              2.0000000000
        55        55  CAL       CAL            27.5715597000      -40.0495400000       20.1154151000  IONS      55              2.0000000000
        56        56  CAL       CAL            -9.1036834400       39.9570953000       14.5513329000  IONS      56              2.0000000000
        57        57  CAL       CAL            -5.7248763300       22.1457502000       12.3929907000  IONS      57              2.0000000000
        58        58  CAL       CAL           -14.2400108000        1.0482668800       19.5259102000  IONS      58              2.0000000000
        59        59  CAL       CAL            18.1486844000       31.9658449000       17.3906901000  IONS      59              2.0000000000
        60        60  CAL       CAL            15.2013239000       18.3447680000       18.1165386000  IONS      60              2.0000000000
        61        61  CAL       CAL            20.7137803000      -20.3645371000       20.4612416000  IONS      61              2.0000000000
        62        62  CAL       CAL             8.1971711800      -10.1240007000       19.0833609000  IONS      62              2.0000000000
        63        63  CAL       CAL            20.5607769000       -8.2366510500       16.6451321000  IONS      63              2.0000000000
        64        64  CAL       CAL            -7.6471742300      -17.4253453000       16.4746088000  IONS      64              2.0000000000
        65        65  CAL       CAL            39.6639649000       -6.7136728100       18.8283713000  IONS      65              2.0000000000
        66        66  CAL       CAL            39.8683245000      -18.8953591000       18.8588156000  IONS      66              2.0000000000
        67        67  CAL       CAL            22.6703103000       32.3792304000       20.9766432000  IONS      67              2.0000000000
        68        68  CAL       CAL             1.8004214200       20.8355377000       20.2877417000  IONS      68              2.0000000000
        69        69  CAL       CAL            11.0700558000       23.0840448000       16.7308544000  IONS      69              2.0000000000
        70        70  CAL       CAL            18.7120574000        2.8437479900       24.1234453000  IONS      70              2.0000000000
        71        71  CAL       CAL           -31.6633825000      -31.5010234000       34.1568332000  IONS      71              2.0000000000
        72        72  CAL       CAL            -5.5812986700      -31.0470279000       35.8320419000  IONS      72              2.0000000000
        73        73  CAL       CAL            39.1990430000       32.9727606000       40.9354880000  IONS      73              2.0000000000
        74        74  CAL       CAL           -39.4219522000       -6.7613297600       32.4625071000  IONS      74              2.0000000000
        75        75  CAL       CAL            -6.6858527100        3.2213522200       35.3638594000  IONS      75              2.0000000000
        76        76  CAL       CAL             3.6362050300       -8.3170009900       29.8976496000  IONS      76              2.0000000000
        77        77  CAL       CAL            11.5014013000       21.1653465000       43.5739034000  IONS      77              2.0000000000
        78        78  CAL       CAL            34.0714902000      -27.9619027000       23.0147285000  IONS      78              2.0000000000
        79        79  CAL       CAL            14.6289424000       27.5173986000       38.3682274000  IONS      79              2.0000000000
        80        80  CAL       CAL           -20.5783995000       23.1269571000       37.2367562000  IONS      80              2.0000000000
        81        81  CAL       CAL            37.0093456000       -6.6360932200       41.7410473000  IONS      81              2.0000000000
        82        82  CAL       CAL            38.3839828000       34.5943128000       28.4592021000  IONS      82              2.0000000000
        83        83  CAL       CAL           -30.5693447000       10.4738650000       35.2548295000  IONS      83              2.0000000000
        84        84  CAL       CAL            24.8979354000       26.0732481000       36.9082991000  IONS      84              2.0000000000
        85        85  CAL       CAL            36.7695549000      -32.8862582000       31.5535166000  IONS      85              2.0000000000
        86        86  CAL       CAL           -35.5236118000       36.1008269000       23.9264641000  IONS      86              2.0000000000
        87        87  CAL       CAL            29.8104660000      -40.2257906000       28.9587577000  IONS      87              2.0000000000
        88        88  CAL       CAL            -5.6312664800      -29.0293701000       42.3299950000  IONS      88              2.0000000000
        89        89  CAL       CAL           -34.4124344000      -40.4752453000       22.3963875000  IONS      89              2.0000000000
        90        90  CAL       CAL             2.9109885100       -8.0382398600       39.6755840000  IONS      90              2.0000000000
        91        91  CAL       CAL            18.3424938000       16.1989815000       22.1342508000  IONS      91              2.0000000000
        92        92  CAL       CAL            31.2272788000      -33.5419277000       46.1454159000  IONS      92              2.0000000000
        93        93  CAL       CAL           -28.6025142000        3.7047205800       47.6283841000  IONS      93              2.0000000000
        94        94  CAL       CAL            -3.4294751400      -32.1175192000       40.6150026000  IONS      94              2.0000000000
        95        95  CAL       CAL            15.0209993000       17.5492311000       45.5520668000  IONS      95              2.0000000000
        96        96  CAL       CAL           -17.9286374000      -25.3513572000       33.8201917000  IONS      96              2.0000000000
        97        97  CAL       CAL           -28.4906099000       36.7636032000       28.2675907000  IONS      97              2.0000000000
        98        98  CAL       CAL            16.8970039000        0.6939892130       46.0506348000  IONS      98              2.0000000000
        99        99  CAL       CAL           -22.0504753000       21.6743952000       41.8042210000  IONS      99              2.0000000000
       100       100  CAL       CAL           -22.4258970000       38.8239783000       35.6526937000  IONS      100             2.0000000000
       101       101  CAL       CAL           -27.7007846000      -13.4707187000       32.9556567000  IONS      101             2.0000000000
       102       102  CAL       CAL            39.9856520000        6.8323080500       33.5430608000  IONS      102             2.0000000000
       103       103  CAL       CAL            37.7431559000       34.7159087000       37.6130899000  IONS      103             2.0000000000
       104       104  CAL       CAL           -31.1667618000        7.0199890200       22.1388321000  IONS      104             2.0000000000
       105       105  CAL       CAL            18.2865322000       -4.0761979900       35.1710592000  IONS      105             2.0000000000
       106       106  CAL       CAL            -9.5837348200       40.5681599000       44.7059455000  IONS      106             2.0000000000
       107       107  CAL       CAL           -24.8919880000       25.0594157000       36.3061268000  IONS      107             2.0000000000
       108       108  CAL       CAL            36.9476899000       -5.6222443000       35.0546789000  IONS      108             2.0000000000
       109       109  CAL       CAL            26.3133708000      -22.2142766000       38.8198312000  IONS      109             2.0000000000
       110       110  CAL       CAL            18.3511408000      -23.8542168000       38.6602460000  IONS      110             2.0000000000
       111       111  CAL       CAL            29.0821522000      -16.4941623000       34.6307382000  IONS      111             2.0000000000
       112       112  CAL       CAL            21.6509353000       31.9362388000       34.5762569000  IONS      112             2.0000000000
       113       113  CAL       CAL           -37.5900000000       -6.1159614200       23.4987148000  IONS      113             2.0000000000
       114       114  CAL       CAL            34.6628272000      -28.4243732000       40.4155207000  IONS      114             2.0000000000
       115       115  CAL       CAL           -38.8743211000      -36.3305216000       38.1191885000  IONS      115             2.0000000000
       116       116  CAL       CAL            20.0222238000        2.4536907500       33.3372345000  IONS      116             2.0000000000
       117       117  CAL       CAL            40.4596645000      -21.5589286000       23.9790597000  IONS      117             2.0000000000
       118       118  CAL       CAL             2.6926045500      -28.8632145000       24.6645956000  IONS      118             2.0000000000
       119       119  CAL       CAL            -5.4989288600       22.7515090000       29.4190489000  IONS      119             2.0000000000
       120       120  CAL       CAL           -29.8393102000       -9.5226359400       37.7014860000  IONS      120             2.0000000000
       121       121  CAL       CAL            27.8695850000      -38.7677670000       40.9458293000  IONS      121             2.0000000000
       122       122  CAL       CAL           -11.1402991000       33.8809056000       46.7860056000  IONS      122             2.0000000000
       123       123  CAL       CAL            26.3732702000      -21.8458310000       23.3405975000  IONS      123             2.0000000000
       124       124  CAL       CAL           -37.0698324000      -37.3526529000       28.3073935000  IONS      124             2.0000000000
       125       125  CAL       CAL            16.9390064000      -36.9890658000       37.4251428000  IONS      125             2.0000000000
       126       126  CAL       CAL            -6.3803927500      -26.1401070000       46.1501698000  IONS      126             2.0000000000
       127       127  CAL       CAL           -20.8969809000       -7.9211973400       47.8014821000  IONS      127             2.0000000000
       128       128  CAL       CAL           -12.1156761000       32.1848958000       33.1879330000  IONS      128             2.0000000000
       129       129  CAL       CAL            40.4410867000      -21.5246754000       39.3279981000  IONS      129             2.0000000000
       130       130  CAL       CAL            36.3563712000        7.2141468400       39.1937378000  IONS      130             2.0000000000
       131       131  CAL       CAL           -37.1481255000        2.6259076400       22.9875554000  IONS      131             2.0000000000
       132       132  CAL       CAL             3.1154007000      -30.7825945000       39.9507418000  IONS      132             2.0000000000
       133       133  CAL       CAL            30.3866363000        1.3880295700       34.1912286000  IONS      133             2.0000000000
       134       134  CAL       CAL           -13.2868610000       24.4979518000       47.5237993000  IONS      134             2.0000000000
       135       135  CAL       CAL            25.0379003000      -12.0985754000       34.0033556000  IONS      135             2.0000000000
       136       136  CAL       CAL           -37.6224910000       34.1857049000       44.3865156000  IONS      136             2.0000000000
       137       137  CAL       CAL             9.2525825500       21.8200886000       26.7883649000  IONS      137             2.0000000000
       138       138  CAL       CAL            40.1828750000      -10.2174007000       38.2162397000  IONS      138             2.0000000000
       139       139  CAL       CAL            25.6879653000       13.3186084000       47.5910105000  IONS      139             2.0000000000
       140       140  CAL       CAL             9.9395447100      -39.0242800000       36.2202245000  IONS      140             2.0000000000
       141       141  CAL       CAL           -36.1444657000       33.1461785000       36.7621966000  IONS      141             2.0000000000
       142       142  CAL       CAL            13.0603190000       22.8656202000       28.1685445000  IONS      142             2.0000000000
       143       143  CAL       CAL           -18.5406008000       21.3383953000       32.7220574000  IONS      143             2.0000000000
       144       144  CAL       CAL           -36.8737037000       -1.5048312700       37.2874535000  IONS      144             2.0000000000
       145       145  CAL       CAL            13.5332825000      -15.9476993000       32.0703352000  IONS      145             2.0000000000
       146       146  CAL       CAL            21.9421451000      -39.1026857000       36.4509313000  IONS      146             2.0000000000
       147       147  CAL       CAL           -21.2201434000      -31.3391239000       36.8474325000  IONS      147             2.0000000000
       148       148  CAL       CAL            -5.7331927500       19.5820893000       45.2899027000  IONS      148             2.0000000000
       149       149  CAL       CAL           -21.3094387000       -3.1790237300       39.4467846000  IONS      149             2.0000000000
       150       150  CAL       CAL           -19.9561679000      -29.2921058000       31.4224337000  IONS      150             2.0000000000
       151       151  CAL       CAL            28.0054449000      -20.9837253000       47.3133186000  IONS      151             2.0000000000
       152       152  CAL       CAL            -0.0374915975       39.3467545000       37.1479427000  IONS      152             2.0000000000
       153       153  CAL       CAL             1.0516828100       -4.3776361100       25.4115212000  IONS      153             2.0000000000
       154       154  CAL       CAL           -24.3053829000       -9.3416212500       37.3308060000  IONS      154             2.0000000000
       155       155  CAL       CAL            -1.2887462800      -29.6799181000       31.0660058000  IONS      155             2.0000000000
       156       156  CAL       CAL           -19.3434400000       -6.7765700500       36.8706509000  IONS      156             2.0000000000
       157       157  CAL       CAL             4.6477302200       36.1613402000       35.6189088000  IONS      157             2.0000000000
       158       158  SOD       SOD            -1.9031832930       32.7189690253      -39.2918061713  IONS      158             1.0000000000
       159       159  SOD       SOD             3.1335946600        4.7600646900      -26.7508615000  IONS      159             1.0000000000
       160       160  SOD       SOD            21.1047303604      -28.0048707376      -24.5622181327  IONS      160             1.0000000000
       161       161  SOD       SOD             7.9493567100       -8.9174203400      -28.8343077000  IONS      161             1.0000000000
       162       162  SOD       SOD           -23.6104739126      -15.1117858365      -26.4130222464  IONS      162             1.0000000000
       163       163  SOD       SOD             1.8480735700       17.2015765000      -28.6091610000  IONS      163             1.0000000000
       164       164  SOD       SOD            18.1478742299       -2.6709648520      143.2900700401  IONS      164             1.0000000000
       165       165  SOD       SOD           -26.3351275143      -16.3707538807       52.5607412821  IONS      165             1.0000000000
       166       166  SOD       SOD           -36.8233595845      -36.3183494027       62.1027868664  IONS      166             1.0000000000
       167       167  SOD       SOD            32.2654939000      -21.5117070000       47.9601469000  IONS      167             1.0000000000
       168       168  SOD       SOD            -6.0870194000      -25.6789366000      129.2680370000  IONS      168             1.0000000000
       169       169  SOD       SOD            22.8441900196      -21.9754623047      128.4890970023  IONS      169             1.0000000000
       170       170  SOD       SOD           -13.3266468982      -11.2680713926      -45.1816316787  IONS      170             1.0000000000
       171       171  SOD       SOD            30.0137055123      -23.9958837107      124.1432349863  IONS      171             1.0000000000
       172       172  SOD       SOD           -33.3611022338        4.1857121726      148.3171291303  IONS      172             1.0000000000
       173       173  SOD       SOD            20.2532679000      -13.2243120000      135.2177570000  IONS      173             1.0000000000
       174       174  SOD       SOD            -3.0052609262       38.2836664854      -37.2957318210  IONS      174             1.0000000000
       175       175  SOD       SOD            38.7739792000       -3.1269234900      -27.3108741000  IONS      175             1.0000000000
       176       176  SOD       SOD             0.0360381280       40.1906803016      128.8377359648  IONS      176             1.0000000000
       177       177  SOD       SOD            39.9869652328       25.4394902554      -24.2595118235  IONS      177             1.0000000000
       178       178  SOD       SOD           -38.0909214323       13.5589314736      -26.5938868009  IONS      178             1.0000000000
       179       179  SOD       SOD            15.5376621000       -0.2386664580      -33.8423601000  IONS      179             1.0000000000
       180       180  SOD       SOD            39.7339132401      -38.7144534133       55.7179768009  IONS      180             1.0000000000
       181       181  SOD       SOD            31.0080426000      -11.4835848000      134.8403020000  IONS      181             1.0000000000
       182       182  SOD       SOD           -21.5259841165       -6.9102367450      105.9497090002  IONS      182             1.0000000000
       183       183  SOD       SOD            15.6086572040      -31.7190107112      -45.4247829853  IONS      183             1.0000000000
       184       184  SOD       SOD            32.7072878725      -17.6922010233      141.7272350299  IONS      184             1.0000000000
       185       185  SOD       SOD            -4.6522477000       15.6254410000       76.5393517000  IONS      185             1.0000000000
       186       186  SOD       SOD            10.4771078000      -24.4423584000      -32.4777366000  IONS      186             1.0000000000
       187       187  SOD       SOD            -9.8137099524       -1.5569524365       70.3747172834  IONS      187             1.0000000000
       188       188  SOD       SOD            31.8257905000      -37.0819497000      -34.6961162000  IONS      188             1.0000000000
       189       189  SOD       SOD            22.6893681000       28.8928098000      -37.8870573000  IONS      189             1.0000000000
       190       190  SOD       SOD           -38.1221210889       36.9723036238      116.4777919635  IONS      190             1.0000000000
       191       191  SOD       SOD           -20.8992120000       38.0510333000      106.2455470000  IONS      191             1.0000000000
       192       192  SOD       SOD            37.5669120000       36.0920043000      -40.2382329000  IONS      192             1.0000000000
       193       193  SOD       SOD           -17.1361867000       40.0807795000      -43.0590356000  IONS      193             1.0000000000
       194       194  SOD       SOD           -20.4225016000      -12.6376839000      141.3653090000  IONS      194             1.0000000000
       195       195  SOD       SOD           -32.2708060722      -10.5977209691      -30.3292322162  IONS      195             1.0000000000
       196       196  SOD       SOD             1.9042869651       21.1869450216      -27.6838233134  IONS      196             1.0000000000
       197       197  SOD       SOD            32.3317848000      -23.7469654000      140.1571710000  IONS      197             1.0000000000
       198       198  SOD       SOD            23.7402654708       18.5959718715      -39.7701441089  IONS      198             1.0000000000
       199       199  SOD       SOD            19.1772777307        3.0642714995      -41.4981960350  IONS      199             1.0000000000
       200       200  SOD       SOD            17.4080187000       -6.0491466700       86.8732244000  IONS      200             1.0000000000
       201       201  SOD       SOD           -37.0200548000       28.5874829000      141.7913570000  IONS      201             1.0000000000
       202       202  SOD       SOD            21.9281776761        9.6841621017       15.9622943137  IONS      202             1.0000000000
       203       203  SOD       SOD            37.3033295979       27.4993247038      -43.0455145053  IONS      203             1.0000000000
       204       204  SOD       SOD           -36.1887890000       34.8312645000       97.6149701000  IONS      204             1.0000000000
       205       205  SOD       SOD            28.9098345000       33.8651554000      -25.2808245000  IONS      205             1.0000000000
       206       206  SOD       SOD            21.7369861000      -13.8666009000      146.4392300000  IONS      206             1.0000000000
       207       207  SOD       SOD             1.8522516100      -28.6203025000      145.2438510000  IONS      207             1.0000000000
       208       208  SOD       SOD           -31.0303094000      -12.4646165000       64.9686300000  IONS      208             1.0000000000
       209       209  SOD       SOD            29.1606514976      -13.7330703987      -26.9051949802  IONS      209             1.0000000000
       210       210  SOD       SOD           -36.6809690085        3.9007150361       74.5222797069  IONS      210             1.0000000000
       211       211  SOD       SOD           -21.1049517000      -34.4094165000      -27.7521805000  IONS      211             1.0000000000
       212       212  SOD       SOD            28.1180072121      -38.7887268034      -35.1169968859  IONS      212             1.0000000000
       213       213  SOD       SOD            38.7726225882       24.6975784368      -33.0751568706  IONS      213             1.0000000000
       214       214  SOD       SOD            10.9180690121      -15.6856569844      148.2920709906  IONS      214             1.0000000000
       215       215  SOD       SOD           -11.4449407524       32.8984717908       64.6800166857  IONS      215             1.0000000000
       216       216  SOD       SOD            36.3766683000      -34.0099538000      -31.1784706000  IONS      216             1.0000000000
       217       217  SOD       SOD            40.4499021000       -5.4309243500      122.2154350000  IONS      217             1.0000000000
       218       218  SOD       SOD            36.3598066000       25.7390881000      127.5337730000  IONS      218             1.0000000000
       219       219  SOD       SOD            31.9035712266      -40.6017383656      -35.1506039823  IONS      219             1.0000000000
       220       220  SOD       SOD            18.8712678000      -24.9482893000       98.1465915000  IONS      220             1.0000000000
       221       221  SOD       SOD            28.3093491000       10.9424474000      -23.9744228000  IONS      221             1.0000000000
       222       222  SOD       SOD             0.0524826823      -30.2769476000      102.7076100000  IONS      222             1.0000000000
       223       223  SOD       SOD            33.8133007000       -3.3247968500      147.6284780000  IONS      223             1.0000000000
       224       224  SOD       SOD            12.0165522000      -12.4241439000       30.0055348000  IONS      224             1.0000000000
       225       225  SOD       SOD           -38.0168458000      -38.1586936000      129.2298590000  IONS      225             1.0000000000
       226       226  SOD       SOD           -34.7788960563       -9.5093879008      144.5099652045  IONS      226             1.0000000000
       227       227  SOD       SOD           -19.0124903000      -15.4345934000      -37.0975880000  IONS      227             1.0000000000
       228       228  SOD       SOD           -39.3300323563      -36.2431660697      123.4142030868  IONS      228             1.0000000000
       229       229  SOD       SOD           -34.6114794033       20.3053315359      136.6551210933  IONS      229             1.0000000000
       230       230  SOD       SOD           -40.1426282799      -16.9262367533      137.3388376843  IONS      230             1.0000000000
       231       231  SOD       SOD           -16.2272776000       14.3223591000      136.2590600000  IONS      231             1.0000000000
       232       232  SOD       SOD           -10.5804161720       23.1055359311      128.4329540070  IONS      232             1.0000000000
       233       233  SOD       SOD             3.6518779300      -12.1239418000       21.4881647000  IONS      233             1.0000000000
       234       234  SOD       SOD            38.1846976000      -37.2839592000      139.6931310000  IONS      234             1.0000000000
       235       235  SOD       SOD           -29.5407355664        6.6166768228      -23.1227818323  IONS      235             1.0000000000
       236       236  SOD       SOD           -40.0624661000       31.3147919000      107.0076480000  IONS      236             1.0000000000
       237       237  SOD       SOD           -23.9981386000       37.0363621000      -22.6816891000  IONS      237             1.0000000000
       238       238  SOD       SOD           -22.7298971000       -1.5326527600       94.8977174000  IONS      238             1.0000000000
       239       239  SOD       SOD            23.0849020958        9.6956435644       90.7083647543  IONS      239             1.0000000000
       240       240  SOD       SOD            31.8383494190      -25.2475661937      105.1576569991  IONS      240             1.0000000000
       241       241  SOD       SOD            -4.3143568431      -19.3364986125       99.3442563084  IONS      241             1.0000000000
       242       242  SOD       SOD            -8.9667534905        6.8646541003      128.0435359992  IONS      242             1.0000000000
       243       243  SOD       SOD           -34.7950123978        9.6884978167      -26.7758623117  IONS      243             1.0000000000
       244       244  SOD       SOD             1.8082470153      -14.1886688770       48.8113198118  IONS      244             1.0000000000
       245       245  SOD       SOD            40.4142596000        9.8694686000       97.7784068000  IONS      245             1.0000000000
       246       246  SOD       SOD            39.4037304000      -22.3008060000      127.4298310000  IONS      246             1.0000000000
       247       247  SOD       SOD             2.2700436829      -17.9994588699      141.7714996930  IONS      247             1.0000000000
       248       248  SOD       SOD             7.5920049200      -12.0174730000      -26.2418429000  IONS      248             1.0000000000
       249       249  SOD       SOD            28.7980315180      -39.0558137761       95.8603357671  IONS      249             1.0000000000
       250       250  SOD       SOD            33.6126750000      -34.7554024000       52.8447372000  IONS      250             1.0000000000
       251       251  SOD       SOD            -6.2823148921       -1.3240704354      138.5885889620  IONS      251             1.0000000000
       252       252  SOD       SOD           -25.0991863000      -28.3177190000      -41.7386728000  IONS      252             1.0000000000
       253       253  SOD       SOD            -5.3554345900       23.4554066000      104.8937570000  IONS      253             1.0000000000
       254       254  SOD       SOD           -37.8623931000       34.8061361000       55.7935522000  IONS      254             1.0000000000
       255       255  SOD       SOD           -32.3804596000      -34.0861907000      -33.1905360000  IONS      255             1.0000000000
       256       256  SOD       SOD           -14.6147905000       25.2907443000      120.3449120000  IONS      256             1.0000000000
       257       257  SOD       SOD            14.4556798000       -4.7353190400      126.1790370000  IONS      257             1.0000000000
       258       258  SOD       SOD           -29.8010108295        4.9894275787      105.7758510007  IONS      258             1.0000000000
       259       259  SOD       SOD            40.0493477000       17.9906971000       91.2776738000  IONS      259             1.0000000000
       260       260  SOD       SOD           -30.5624227000      -10.8259098000      121.1687150000  IONS      260             1.0000000000
       261       261  SOD       SOD            14.7660587000       22.8127941000       35.1183122000  IONS      261             1.0000000000
       262       262  SOD       SOD             4.1710428000       38.8742864000      120.2378720000  IONS      262             1.0000000000
       263       263  SOD       SOD            -5.6519808383      -14.9955776457      -30.9906739968  IONS      263             1.0000000000
       264       264  SOD       SOD            27.8234986260       28.4445472991      147.9981109990  IONS      264             1.0000000000
       265       265  SOD       SOD            11.6016333000       21.0191317000      119.8853430000  IONS      265             1.0000000000
       266       266  SOD       SOD           -37.1857625000       17.1836263000      -43.0468786000  IONS      266             1.0000000000
       267       267  SOD       SOD           -33.7432898993      -28.0158867421      113.7675100126  IONS      267             1.0000000000
       268       268  SOD       SOD           -35.2328556000      -38.4462603000      144.3487620000  IONS      268             1.0000000000
       269       269  SOD       SOD            17.5004100468       -6.5016664967       26.5591120732  IONS      269             1.0000000000
       270       270  SOD       SOD            38.7322306000       28.0552830000      107.5992300000  IONS      270             1.0000000000
       271       271  SOD       SOD           -30.8371639000      -22.7423407000      135.4063270000  IONS      271             1.0000000000
       272       272  CLA       CLA            17.3343684000      -24.2315342000       82.2505219000  IONS      272            -1.0000000000
       273       273  CLA       CLA           -34.6789247000      -24.0238447000       63.6869129000  IONS      273            -1.0000000000
       274       274  CLA       CLA           -18.9500925600      -12.6346207306      137.7339226787  IONS      274            -1.0000000000
       275       275  CLA       CLA            30.1033050000        2.3221033600      146.5762610000  IONS      275            -1.0000000000
       276       276  CLA       CLA           -12.4474997022       27.8638529552      100.3145969516  IONS      276            -1.0000000000
       277       277  CLA       CLA             9.8548808127       11.5297395045      133.8250379915  IONS      277            -1.0000000000
       278       278  CLA       CLA             1.7723306200       36.6544979000      126.8598710000  IONS      278            -1.0000000000
       279       279  CLA       CLA           -17.9754816000        6.5870962600      -34.2828060000  IONS      279            -1.0000000000
       280       280  CLA       CLA            34.2710598000        7.0753503700      141.3330890000  IONS      280            -1.0000000000
       281       281  CLA       CLA            13.7631063126      -30.2167153276      133.5017077802  IONS      281            -1.0000000000
       282       282  CLA       CLA            -6.7023807078       28.8809720149      -43.2413764700  IONS      282            -1.0000000000
       283       283  CLA       CLA             7.3265723253      -18.4246101212      145.8790121538  IONS      283            -1.0000000000
       284       284  CLA       CLA             0.5442708860       29.1034639468       70.1743777846  IONS      284            -1.0000000000
       285       285  CLA       CLA            25.6935400000       40.3543844000      123.4551140000  IONS      285            -1.0000000000
       286       286  CLA       CLA           -29.0527146000      -16.9785062000      134.0449850000  IONS      286            -1.0000000000
       287       287  CLA       CLA            30.8276238000       14.4028749000      -45.4139086000  IONS      287            -1.0000000000
       288       288  CLA       CLA            34.6740821000       10.2821311000      -42.2406964000  IONS      288            -1.0000000000
       289       289  CLA       CLA           -35.3076874000      -24.3500670000      144.4355760000  IONS      289            -1.0000000000
       290       290  CLA       CLA             3.7276479158       -9.4174800003      114.1357599830  IONS      290            -1.0000000000
       291       291  CLA       CLA            16.0820107921       -5.4091541786       83.2118830221  IONS      291            -1.0000000000
       292       292  CLA       CLA             6.5480058501      -12.5871551687      110.0314999332  IONS      292            -1.0000000000
       293       293  CLA       CLA            28.8735325922      -28.4565637057      147.7093869975  IONS      293            -1.0000000000
       294       294  CLA       CLA            -2.4972406437       16.1826053051      -24.6388914794  IONS      294            -1.0000000000
       295       295  CLA       CLA           -31.3979478233      -12.2201737411      114.2345990323  IONS      295            -1.0000000000
       296       296  CLA       CLA            23.2400585000       19.0645505000      147.7636340000  IONS      296            -1.0000000000
       297       297  CLA       CLA           -25.1700041906       -9.6371983504      126.4141320364  IONS      297            -1.0000000000
       298       298  CLA       CLA           -11.7797405931       23.1995515060      143.2225460041  IONS      298            -1.0000000000
       299       299  CLA       CLA           -20.0438850000        2.4013558900      141.7444210000  IONS      299            -1.0000000000
       300       300  CLA       CLA            -9.3573652500        9.4880954900       97.8523082000  IONS      300            -1.0000000000
       301       301  CLA       CLA           -19.4894536179      -38.3440718089       33.2809801997  IONS      301            -1.0000000000
       302       302  CLA       CLA             5.8441777209       -3.8447565781      -36.0631241957  IONS      302            -1.0000000000
       303       303  CLA       CLA           -37.5318565801       34.6306285202       73.9063809588  IONS      303            -1.0000000000
       304       304  CLA       CLA            16.4188867837       -3.4113408068      -24.3085228078  IONS      304            -1.0000000000
       305       305  CLA       CLA           -30.7759257000       32.8121829000       69.9103349000  IONS      305            -1.0000000000
       306       306  CLA       CLA            -4.4988911188        5.9095247152      -40.5172701025  IONS      306            -1.0000000000
       307       307  CLA       CLA            18.7618639000      -11.7268957000      -35.9623259000  IONS      307            -1.0000000000
       308       308  CLA       CLA           -15.9463647000        1.5422334500      139.4279510000  IONS      308            -1.0000000000
       309       309  CLA       CLA           -11.9169284000       20.6540561000      -41.3261822000  IONS      309            -1.0000000000
       310       310  CLA       CLA             9.4672990300       24.4327108000      104.6068370000  IONS      310            -1.0000000000
       311       311  CLA       CLA            11.9775178926      -25.6588732200       66.7895303932  IONS      311            -1.0000000000
       312       312  CLA       CLA            -6.5361917078       35.4200601517      -41.6869293066  IONS      312            -1.0000000000
       313       313  CLA       CLA           -39.5439657000       23.6935247000      -29.0805616000  IONS      313            -1.0000000000
       314       314  CLA       CLA           -30.3821105000      -37.9811926000      120.3769950000  IONS      314            -1.0000000000
       315       315  CLA       CLA           -38.3445882000       25.0283303000       70.2268231000  IONS      315            -1.0000000000
       316       316  CLA       CLA           -25.4288828351      -10.9726811395      -25.3795737086  IONS      316            -1.0000000000
       317       317  CLA       CLA           -40.4078854571       39.3697880280      147.6469929057  IONS      317            -1.0000000000
       318       318  CLA       CLA            -9.5545433387       -8.9727299428      -24.8651187874  IONS      318            -1.0000000000
       319       319  CLA       CLA            -5.7605073453       12.3028373498       42.0222917997  IONS      319            -1.0000000000
