* GENERATED BY CHARMM-GUI (HTTP://WWW.CHARMM-GUI.ORG) V3.7 ON MAY, 16. 2026. JOB
* GENERATES LIPID PACKING USING BIG SPHERES
*  DATE:     5/16/26      3: 0:45      CREATED BY USER: charmm-gui
*
       135  EXT
         1         1  LPSA      POLO           23.3027319505       -3.5840814269       11.9818548260  HEAD      1               0.0000000000
         2         2  LPSA      POLO            3.0911011883       19.0213596126       11.9909835541  HEAD      2               0.0000000000
         3         3  LPSA      POLO          -28.1241302353      -39.3356927697       12.0448712131  HEAD      3               0.0000000000
         4         4  LPSA      POLO          -24.4843915649      -25.2203300291       12.0544007129  HEAD      4               0.0000000000
         5         5  LPSA      POLO           27.6218725043      -30.2803583000       12.0040296362  HEAD      5               0.0000000000
         6         6  LPSA      POLO           -0.8529633968        5.3016943398       11.8843042438  HEAD      6               0.0000000000
         7         7  LPSA      POLO          -28.9781152499       -0.3109361920       11.8555620854  HEAD      7               0.0000000000
         8         8  LPSA      POLO            8.4311417053       -5.6678498821       11.9503439844  HEAD      8               0.0000000000
         9         9  LPSA      POLO          -34.1251970110      -13.5730821689       11.9475381091  HEAD      9               0.0000000000
        10        10  LPSA      POLO          -10.0918146923      -23.2219460221       11.9339635456  HEAD      10              0.0000000000
        11        11  LPSA      POLO           19.1780897315       22.0013104943       12.1287272568  HEAD      11              0.0000000000
        12        12  LPSA      POLO          -15.3874253019        3.7685214814       12.1213033434  HEAD      12              0.0000000000
        13        13  LPSA      POLO            3.1424168416      -18.4633456688       12.0819220259  HEAD      13              0.0000000000
        14        14  LPSA      POLO           -6.5341964965       31.6553155439       11.9831756114  HEAD      14              0.0000000000
        15        15  LPSA      POLO           34.9876426458       21.0915303394       11.8796587104  HEAD      15              0.0000000000
        16        16  LPSA      POLO          -34.2809800998       28.2312626921       12.0980455974  HEAD      16              0.0000000000
        17        17  LPSA      POLO          -38.8726311208      -26.9182544342       12.1494996016  HEAD      17              0.0000000000
        18        18  LPSA      POLO            0.1153738468      -36.4192207790       11.9580873439  HEAD      18              0.0000000000
        19        19  LPSA      POLO          -10.8295433132       17.6707204466       12.0112753266  HEAD      19              0.0000000000
        20        20  LPSA      POLO          -25.0240336354       15.8579660625       12.0203440499  HEAD      20              0.0000000000
        21        21  LPSA      POLO          -19.8653474340      -11.2905319153       11.9931208290  HEAD      21              0.0000000000
        22        22  LPSA      POLO           28.0302898047        9.3259886625       12.0028710315  HEAD      22              0.0000000000
        23        23  LPSA      POLO           18.1076112632      -16.8568081300       12.0352259705  HEAD      23              0.0000000000
        24        24  LPSA      POLO            7.4235636539       31.7759536591       11.9991197186  HEAD      24              0.0000000000
        25        25  LPSA      POLO          -14.3203429688      -37.0251741960       11.9844138400  HEAD      25              0.0000000000
        26        26  LPSA      POLO           13.4546729426        7.9014092117       12.0425686637  HEAD      26              0.0000000000
        27        27  LPSA      POLO          -20.2998501189       29.6172411720       11.9731347392  HEAD      27              0.0000000000
        28        28  LPSA      POLO           -6.3514857975       -7.9180514080       11.9595079164  HEAD      28              0.0000000000
        29        29  LPSA      POLO           12.0494719889      -28.9531237027       12.0653015496  HEAD      29              0.0000000000
        30        30  LPSA      POLO           17.8788138100       40.5590561501       12.0769981755  HEAD      30              0.0000000000
        31        31  LPSA      POLO           32.7821460883      -16.1249786718       11.9859009816  HEAD      31              0.0000000000
        32        32  LPSA      POLO          -37.8688757712       10.5722804267       11.8863773574  HEAD      32              0.0000000000
        33        33  LPSA      POLO           28.7480607804       32.9245800194       11.9994197853  HEAD      33              0.0000000000
        34        34  LPSA      POLO           37.6112226345       -2.4935981655       11.9806016616  HEAD      34              0.0000000000
        35        35  LPSA      POLO           39.4376089322      -40.4128161187       11.9544683640  HEAD      35              0.0000000000
        36        36  PVCL2     POLO          -21.9603278229      -37.7957968873      -11.9899471189  HEAD      36              0.0000000000
        37        37  PVCL2     POLO           15.7559698962      -12.3499166073      -12.0961687595  HEAD      37              0.0000000000
        38        38  PVCL2     POLO          -16.7317540174      -26.6128475767      -12.0656712200  HEAD      38              0.0000000000
        39        39  PVCL2     POLO          -40.6421362781       37.2962361408      -12.0260681841  HEAD      39              0.0000000000
        40        40  PVCL2     POLO           -8.6809547410       28.8066006313      -11.9720807973  HEAD      40              0.0000000000
        41        41  PPPE      POLO          -39.4177464474      -25.8863111920      -12.1121100873  HEAD      41              0.0000000000
        42        42  PPPE      POLO           12.7797325210      -30.2672282055      -11.8865616872  HEAD      42              0.0000000000
        43        43  PPPE      POLO          -14.9594001359       36.5985034088      -11.9834897944  HEAD      43              0.0000000000
        44        44  PPPE      POLO          -23.3967589179      -19.7544807151      -12.0995499822  HEAD      44              0.0000000000
        45        45  PPPE      POLO            5.3236131370       16.6014513420      -12.0056241119  HEAD      45              0.0000000000
        46        46  PPPE      POLO           39.6375354712       -2.7072115646      -11.9230326558  HEAD      46              0.0000000000
        47        47  PPPE      POLO           19.9852442865       13.9379010360      -11.9715484678  HEAD      47              0.0000000000
        48        48  PPPE      POLO          -26.1933757221        3.0697176125      -12.0011391502  HEAD      48              0.0000000000
        49        49  PPPE      POLO           31.5690956672       33.3891850646      -11.9630233408  HEAD      49              0.0000000000
        50        50  PPPE      POLO           25.1894527279       39.2168585844      -12.0554820645  HEAD      50              0.0000000000
        51        51  PPPE      POLO          -33.4392687078      -31.3141602823      -11.9977139182  HEAD      51              0.0000000000
        52        52  PPPE      POLO            5.2947329948      -33.2405749032      -12.0271731476  HEAD      52              0.0000000000
        53        53  PPPE      POLO           35.9145885792       19.5661218526      -12.0558254759  HEAD      53              0.0000000000
        54        54  PPPE      POLO           13.3360924649       19.4706070820      -12.0909644659  HEAD      54              0.0000000000
        55        55  PPPE      POLO          -40.4826924570        5.5259075703      -12.0160105220  HEAD      55              0.0000000000
        56        56  PPPE      POLO          -37.2642196538       22.3272600235      -11.9739534847  HEAD      56              0.0000000000
        57        57  PPPE      POLO           34.4540739205      -29.5137905682      -12.0101229706  HEAD      57              0.0000000000
        58        58  PPPE      POLO           -7.9780488757      -21.6844894645      -11.9093374284  HEAD      58              0.0000000000
        59        59  PPPE      POLO            6.8362844534       24.9247423991      -11.8413265527  HEAD      59              0.0000000000
        60        60  PPPE      POLO          -31.7112315105      -22.6090466003      -11.9792038381  HEAD      60              0.0000000000
        61        61  PPPE      POLO          -13.5230208234       -8.0634357587      -11.9686514904  HEAD      61              0.0000000000
        62        62  PPPE      POLO           34.6184498083       11.1213839012      -11.8985731053  HEAD      62              0.0000000000
        63        63  PPPE      POLO           17.3422463502       36.3590447990      -12.0422705968  HEAD      63              0.0000000000
        64        64  PPPE      POLO           -4.1117876951        4.4807686885      -12.0886390318  HEAD      64              0.0000000000
        65        65  PPPE      POLO           37.6139751707      -11.5148879851      -12.0212468278  HEAD      65              0.0000000000
        66        66  PPPE      POLO          -11.8257913336        0.7313354711      -12.0045188314  HEAD      66              0.0000000000
        67        67  PPPE      POLO           10.2697239957        2.1264818747      -12.0592309313  HEAD      67              0.0000000000
        68        68  PPPE      POLO           25.3629692027        0.2247090042      -12.0821365728  HEAD      68              0.0000000000
        69        69  PPPE      POLO          -37.5236257197      -16.9498068372      -12.0613960184  HEAD      69              0.0000000000
        70        70  PPPE      POLO           -2.5511710787       13.1901117197      -12.0760059479  HEAD      70              0.0000000000
        71        71  PPPE      POLO          -15.0269125476      -16.6147549377      -11.9119273714  HEAD      71              0.0000000000
        72        72  PPPE      POLO           14.4880636323      -21.9958149605      -12.0265173262  HEAD      72              0.0000000000
        73        73  PPPE      POLO            7.1775457560      -16.0718965969      -12.0661882606  HEAD      73              0.0000000000
        74        74  PPPE      POLO           33.1145126705        2.5945193119      -12.0551898352  HEAD      74              0.0000000000
        75        75  PPPE      POLO           10.8668127094      -39.2991326937      -11.9841062886  HEAD      75              0.0000000000
        76        76  PPPE      POLO           17.2249451540       -2.7593495000      -12.0352293289  HEAD      76              0.0000000000
        77        77  PPPE      POLO           18.8524326087      -36.5365159730      -12.0236611060  HEAD      77              0.0000000000
        78        78  PPPE      POLO           11.8714540595       10.8493349468      -12.0391511285  HEAD      78              0.0000000000
        79        79  PPPE      POLO          -31.9160328998      -39.6289511324      -12.0289734079  HEAD      79              0.0000000000
        80        80  PPPE      POLO           37.9005785846       27.9623156986      -11.9028633583  HEAD      80              0.0000000000
        81        81  PPPE      POLO           21.6071927964       22.3579410787      -12.1290761306  HEAD      81              0.0000000000
        82        82  PPPE      POLO           26.7167823588      -33.3761608387      -11.9067810623  HEAD      82              0.0000000000
        83        83  PPPE      POLO           24.3107013909       -8.0680653510      -12.0002082610  HEAD      83              0.0000000000
        84        84  PPPE      POLO           -5.4289074054       -4.6713105687      -12.0379413570  HEAD      84              0.0000000000
        85        85  PPPE      POLO           20.6583137865      -27.7089135702      -12.0208626878  HEAD      85              0.0000000000
        86        86  PPPE      POLO          -34.5360879486       30.1421190397      -12.0318383884  HEAD      86              0.0000000000
        87        87  PPPE      POLO           -5.8703027711       37.9797388193      -11.9726251490  HEAD      87              0.0000000000
        88        88  PPPE      POLO          -32.5390082215        8.4423838209      -11.9195221347  HEAD      88              0.0000000000
        89        89  PPPE      POLO          -27.7320152118       -5.4241351325      -12.0454181360  HEAD      89              0.0000000000
        90        90  PPPE      POLO           -6.6185069706      -13.1053904450      -12.0849618730  HEAD      90              0.0000000000
        91        91  PPPE      POLO            0.8940527783       31.0860791101      -11.9973364029  HEAD      91              0.0000000000
        92        92  PPPE      POLO           26.6232566601        8.4326404770      -11.9965348648  HEAD      92              0.0000000000
        93        93  PPPE      POLO          -21.3872648494      -11.2670572535      -12.0835208614  HEAD      93              0.0000000000
        94        94  PPPE      POLO           -2.3986306843      -35.9204898239      -12.0427520500  HEAD      94              0.0000000000
        95        95  PPPE      POLO           35.8490025232      -20.2143822785      -12.0441967270  HEAD      95              0.0000000000
        96        96  PPPE      POLO           23.4692118081       30.5186949444      -11.9895605949  HEAD      96              0.0000000000
        97        97  PPPE      POLO            8.4025869784       -6.1766032715      -12.0161577257  HEAD      97              0.0000000000
        98        98  PPPE      POLO            1.1951888248      -10.0924252027      -12.0435939823  HEAD      98              0.0000000000
        99        99  PPPE      POLO           18.4384658345        5.5940683298      -11.9986201295  HEAD      99              0.0000000000
       100       100  PPPE      POLO          -19.7883681157       -2.3537984892      -12.0654812037  HEAD      100             0.0000000000
       101       101  PPPE      POLO          -20.0652115536       30.2359924648      -12.0226754560  HEAD      101             0.0000000000
       102       102  PPPE      POLO            3.1196035131       39.3025531621      -12.1263388341  HEAD      102             0.0000000000
       103       103  PPPE      POLO          -29.3847396973      -14.1658888791      -11.9746176248  HEAD      103             0.0000000000
       104       104  PPPE      POLO          -31.1717070801       16.8445810679      -12.0535070664  HEAD      104             0.0000000000
       105       105  PPPE      POLO           28.0180872652       16.6714106780      -12.0758281888  HEAD      105             0.0000000000
       106       106  PPPE      POLO           22.4737071100      -18.8159894815      -12.0868361748  HEAD      106             0.0000000000
       107       107  PPPE      POLO           -8.9469878366       18.5402078167      -12.0084515181  HEAD      107             0.0000000000
       108       108  PPPE      POLO           29.6082480339      -14.5826386959      -12.0391092939  HEAD      108             0.0000000000
       109       109  PPPE      POLO          -34.0270925232        0.0071558970      -12.1146027785  HEAD      109             0.0000000000
       110       110  PPPE      POLO           31.9120969104       -5.7655360171      -12.0852097699  HEAD      110             0.0000000000
       111       111  PPPE      POLO          -27.6404866804       26.0851697692      -12.1223855744  HEAD      111             0.0000000000
       112       112  PPPE      POLO           -8.0830911906      -30.1144634509      -11.8957162259  HEAD      112             0.0000000000
       113       113  PPPE      POLO          -23.2146016895       19.3065184736      -12.0431068631  HEAD      113             0.0000000000
       114       114  PPPE      POLO          -16.7793619202       14.5845579651      -12.0046716397  HEAD      114             0.0000000000
       115       115  PPPE      POLO           15.3330338965       27.9793863135      -11.8786941793  HEAD      115             0.0000000000
       116       116  PVPG      POLO            6.6741483366      -24.3779301537      -11.9976762489  HEAD      116             0.0000000000
       117       117  PVPG      POLO           -0.6804221695      -27.2788379987      -11.9990831479  HEAD      117             0.0000000000
       118       118  PVPG      POLO           -0.1844584444      -18.9295364308      -12.0906775542  HEAD      118             0.0000000000
       119       119  PVPG      POLO           32.9168204035      -38.6223591051      -11.9920754971  HEAD      119             0.0000000000
       120       120  PVPG      POLO          -25.9960221501      -28.5966937315      -11.9978835155  HEAD      120             0.0000000000
       121       121  PVPG      POLO          -27.2062240885       34.7855941891      -12.0236439152  HEAD      121             0.0000000000
       122       122  PVPG      POLO          -39.0216281358       14.1418833823      -12.0279436587  HEAD      122             0.0000000000
       123       123  PVPG      POLO          -40.6826951725      -34.5704228956      -11.9159950594  HEAD      123             0.0000000000
       124       124  PVPG      POLO            3.7840034958        7.8211829193      -12.0578455822  HEAD      124             0.0000000000
       125       125  PVPG      POLO          -10.4655761789        9.8328904639      -12.0426880284  HEAD      125             0.0000000000
       126       126  PVPG      POLO           29.8312201599       25.1675364551      -12.0468790068  HEAD      126             0.0000000000
       127       127  PVPG      POLO          -35.7712781123       -8.6201846796      -11.9791998946  HEAD      127             0.0000000000
       128       128  PVPG      POLO           28.3547969640      -24.3079525911      -12.0134622760  HEAD      128             0.0000000000
       129       129  PVPG      POLO            8.9642011839       33.3787175541      -11.9484044113  HEAD      129             0.0000000000
       130       130  PVPG      POLO           -1.0774222423       21.9363040719      -11.9215816641  HEAD      130             0.0000000000
       131       131  PVPG      POLO          -12.1239350718      -37.1871111404      -11.9317775534  HEAD      131             0.0000000000
       132       132  PVPG      POLO          -18.1355766635        5.9744028723      -12.0442143987  HEAD      132             0.0000000000
       133       133  PVPG      POLO          -24.6209633844       11.2196744913      -11.9510936222  HEAD      133             0.0000000000
       134       134  PVPG      POLO          -16.1268050081       23.0770707495      -11.9894794716  HEAD      134             0.0000000000
       135       135  PVPG      POLO            1.9846565636       -1.0115233143      -12.0615309855  HEAD      135             0.0000000000
